version 2
run Ten-0-20100408-14:37:55-4503
attr configname Ten
attr datetime 20100408-14:37:55
attr experiment Ten
attr inifile omnetpp.ini
attr iterationvars ""
attr iterationvars2 $repetition=0
attr measurement ""
attr network sim
attr processid 4503
attr repetition 0
attr replication #0
attr resultdir results
attr runnumber 0
attr seedset 0

vector 2  sim.host[0].batteryStats  capacity(relative)  ETV
vector 8  sim.host[1].batteryStats  capacity(relative)  ETV
vector 14  sim.host[2].batteryStats  capacity(relative)  ETV
vector 20  sim.host[3].batteryStats  capacity(relative)  ETV
vector 26  sim.host[4].batteryStats  capacity(relative)  ETV
vector 32  sim.host[5].batteryStats  capacity(relative)  ETV
vector 38  sim.host[6].batteryStats  capacity(relative)  ETV
vector 44  sim.host[7].batteryStats  capacity(relative)  ETV
vector 50  sim.host[8].batteryStats  capacity(relative)  ETV
vector 56  sim.host[9].batteryStats  capacity(relative)  ETV
vector 62  sim.host[10].batteryStats  capacity(relative)  ETV
vector 68  sim.host[11].batteryStats  capacity(relative)  ETV
vector 74  sim.host[12].batteryStats  capacity(relative)  ETV
vector 80  sim.host[13].batteryStats  capacity(relative)  ETV
vector 86  sim.host[14].batteryStats  capacity(relative)  ETV
vector 92  sim.host[15].batteryStats  capacity(relative)  ETV
vector 98  sim.host[16].batteryStats  capacity(relative)  ETV
vector 104  sim.host[17].batteryStats  capacity(relative)  ETV
vector 110  sim.host[18].batteryStats  capacity(relative)  ETV
vector 116  sim.host[19].batteryStats  capacity(relative)  ETV
2	0	0	1
2	61	0.25	1
2	81	0.5	1
2	29034	0.75	0.999967831946
2	65295	1	0.999956119826
2	100669	1.25	0.999944467902
2	121066	1.5	0.999936569045
2	121086	1.75	0.999936569045
2	132544	2	0.999911896506
2	132564	2.25	0.999911896506
2	151403	2.5	0.999890220795
2	188376	2.75	0.999878500481
2	239279	3	0.999866924784
2	290658	3.25	0.999855832451
2	343671	3.5	0.999844408356
2	395543	3.75	0.999832935473
2	438775	4	0.999821626251
2	468015	4.25	0.999810193635
2	497398	4.5	0.999798749629
2	526025	4.75	0.999787377407
2	561123	5	0.999775846706
2	609284	5.25	0.999764015481
2	640950	5.5	0.999752671324
2	676137	5.75	0.999741121544
2	722826	6	0.999729528144
2	769764	6.25	0.999717969807
2	810375	6.5	0.999706343239
2	840709	6.75	0.999694829904
2	872698	7	0.999683199563
2	902003	7.25	0.999671477164
2	929816	7.5	0.99965978583
2	958356	7.75	0.999648079032
2	1000582	8	0.999636390117
2	1051445	8.25	0.999624728531
2	1078660	8.5	0.999613714291
2	1105642	8.75	0.999602989791
2	1132588	9	0.999591793603
2	1159136	9.25	0.999580951099
2	1171009	9.5	0.999573237925
2	1207923	9.75	0.999558436531
2	1246594	10	0.999546833729
2	1277725	10.25	0.999535273842
2	1305007	10.5	0.999523733406
2	1316935	10.75	0.999517133323
2	1316975	11	0.999502499868
2	1316995	11.25	0.999502499868
2	1317015	11.5	0.999502499868
2	1317035	11.75	0.999502499868
2	1317075	12	0.999460953974
2	1317095	12.25	0.999460953974
2	1317115	12.5	0.999460953974
2	1317135	12.75	0.999460953974
2	1317175	13	0.999419408081
2	1317195	13.25	0.999419408081
2	1317215	13.5	0.999419408081
2	1317235	13.75	0.999419408081
2	1317275	14	0.999377862187
2	1317295	14.25	0.999377862187
2	1317315	14.5	0.999377862187
2	1317335	14.75	0.999377862187
8	0	0	1
8	62	0.25	1
8	82	0.5	1
8	29035	0.75	0.999967838138
8	65296	1	0.999956089036
8	100670	1.25	0.999944499923
8	121067	1.5	0.9999372256
8	121087	1.75	0.9999372256
8	132545	2	0.999912205706
8	132565	2.25	0.999912205706
8	151404	2.5	0.9998905428
8	188377	2.75	0.99987879653
8	239280	3	0.999867125913
8	290659	3.25	0.999855444683
8	343672	3.5	0.999843967601
8	395544	3.75	0.999832443205
8	438776	4	0.99982121017
8	468016	4.25	0.999811282646
8	497399	4.5	0.999800419743
8	526026	4.75	0.999793978613
8	561124	5	0.999779194708
8	609285	5.25	0.999768344625
8	640951	5.5	0.999757752885
8	676138	5.75	0.999746873144
8	722827	6	0.999735438252
8	769765	6.25	0.999724010173
8	810376	6.5	0.999713224853
8	840710	6.75	0.999702279282
8	872699	7	0.99969120571
8	902004	7.25	0.999679507229
8	929817	7.5	0.99966775647
8	958357	7.75	0.999655935016
8	1000583	8	0.999644265134
8	1051446	8.25	0.999632710593
8	1078661	8.5	0.99962223143
8	1105643	8.75	0.999619531402
8	1132589	9	0.999601122212
8	1159137	9.25	0.999590699372
8	1171010	9.5	0.999588340102
8	1207924	9.75	0.999568669524
8	1246595	10	0.999557226293
8	1277726	10.25	0.999545933597
8	1305008	10.5	0.999534847008
8	1316936	10.75	0.999528452784
8	1316976	11	0.999513819329
8	1316996	11.25	0.999513819329
8	1317016	11.5	0.999513819329
8	1317036	11.75	0.999513819329
8	1317076	12	0.999472273435
8	1317096	12.25	0.999472273435
8	1317116	12.5	0.999472273435
8	1317136	12.75	0.999472273435
8	1317176	13	0.999430727542
8	1317196	13.25	0.999430727542
8	1317216	13.5	0.999430727542
8	1317236	13.75	0.999430727542
8	1317276	14	0.999389181648
8	1317296	14.25	0.999389181648
8	1317316	14.5	0.999389181648
8	1317336	14.75	0.999389181648
14	0	0	1
14	63	0.25	1
14	83	0.5	1
14	29036	0.75	0.99996770345
14	65297	1	0.999955784785
14	100671	1.25	0.999944012849
14	121068	1.5	0.999936644889
14	121088	1.75	0.999936644889
14	132546	2	0.999912101714
14	132566	2.25	0.999912101714
14	151405	2.5	0.999890374779
14	188378	2.75	0.999878718149
14	239281	3	0.999866999526
14	290660	3.25	0.999855586896
14	343673	3.5	0.99984426573
14	395545	3.75	0.999833100714
14	438777	4	0.999821867679
14	468017	4.25	0.999811940155
14	497400	4.5	0.999801077252
14	526027	4.75	0.999794636122
14	561125	5	0.999779682026
14	609286	5.25	0.999768318069
14	640952	5.5	0.999757687841
14	676139	5.75	0.999746783737
14	722828	6	0.999735348845
14	769766	6.25	0.999723920766
14	810377	6.5	0.999713135446
14	840711	6.75	0.999702189875
14	872700	7	0.999691116303
14	902005	7.25	0.999679417823
14	929818	7.5	0.999667644994
14	958358	7.75	0.99965597058
14	1000584	8	0.999644201339
14	1051447	8.25	0.999632560245
14	1078662	8.5	0.999622116411
14	1105644	8.75	0.999611789111
14	1132590	9	0.999600749919
14	1159138	9.25	0.999590197385
14	1171011	9.5	0.999587838115
14	1207925	9.75	0.999568117223
14	1246596	10	0.999556649289
14	1277727	10.25	0.999545255054
14	1305009	10.5	0.999534032051
14	1316937	10.75	0.999527602953
14	1316977	11	0.999512969497
14	1316997	11.25	0.999512969497
14	1317017	11.5	0.999512969497
14	1317037	11.75	0.999512969497
14	1317077	12	0.999471423604
14	1317097	12.25	0.999471423604
14	1317117	12.5	0.999471423604
14	1317137	12.75	0.999471423604
14	1317177	13	0.99942987771
14	1317197	13.25	0.99942987771
14	1317217	13.5	0.99942987771
14	1317237	13.75	0.99942987771
14	1317277	14	0.999388331816
14	1317297	14.25	0.999388331816
14	1317317	14.5	0.999388331816
14	1317337	14.75	0.999388331816
20	0	0	1
20	64	0.25	1
20	84	0.5	1
20	29037	0.75	0.999968033533
20	65298	1	0.999956623589
20	100672	1.25	0.99994531503
20	121069	1.5	0.999937554433
20	121089	1.75	0.999937554433
20	132547	2	0.999913342771
20	132567	2.25	0.999913342771
20	151406	2.5	0.999892261318
20	188379	2.75	0.999881063794
20	239282	3	0.999869288397
20	290661	3.25	0.999857611624
20	343674	3.5	0.999845913224
20	395546	3.75	0.999834168047
20	438778	4	0.99982248622
20	468018	4.25	0.999810731998
20	497401	4.5	0.999799012075
20	526028	4.75	0.999787262819
20	561126	5	0.999775559649
20	609287	5.25	0.999763927434
20	640953	5.5	0.999752090694
20	676140	5.75	0.999740369698
20	722829	6	0.999728699247
20	769767	6.25	0.999717357274
20	810378	6.5	0.999706122109
20	840712	6.75	0.999694861423
20	872701	7	0.999683701298
20	902006	7.25	0.999672823517
20	929819	7.5	0.999661629871
20	958359	7.75	0.999650712228
20	1000585	8	0.999639276475
20	1051448	8.25	0.999627591594
20	1078663	8.5	0.999615921644
20	1105645	8.75	0.999604247926
20	1132591	9	0.999592528558
20	1159139	9.25	0.99958078678
20	1171012	9.5	0.999573610445
20	1207926	9.75	0.999558597503
20	1246597	10	0.999546757014
20	1277728	10.25	0.999535676035
20	1305010	10.5	0.9995248546
20	1316938	10.75	0.999518493453
20	1316978	11	0.999503859998
20	1316998	11.25	0.999503859998
20	1317018	11.5	0.999503859998
20	1317038	11.75	0.999503859998
20	1317078	12	0.999462314104
20	1317098	12.25	0.999462314104
20	1317118	12.5	0.999462314104
20	1317138	12.75	0.999462314104
20	1317178	13	0.99942076821
20	1317198	13.25	0.99942076821
20	1317218	13.5	0.99942076821
20	1317238	13.75	0.99942076821
20	1317278	14	0.999379222317
20	1317298	14.25	0.999379222317
20	1317318	14.5	0.999379222317
20	1317338	14.75	0.999379222317
26	0	0	1
26	65	0.25	1
26	85	0.5	1
26	29038	0.75	0.999968033533
26	65299	1	0.999956623589
26	100673	1.25	0.99994531503
26	121070	1.5	0.999937554433
26	121090	1.75	0.999937554433
26	132548	2	0.999913308846
26	132568	2.25	0.999913308846
26	151407	2.5	0.999892227394
26	188380	2.75	0.999881026781
26	239283	3	0.999869281454
26	290662	3.25	0.999857609763
26	343675	3.5	0.999845865023
26	395547	3.75	0.999834151634
26	438779	4	0.999822447283
26	468019	4.25	0.999810782702
26	497402	4.5	0.999799091388
26	526029	4.75	0.999787628309
26	561127	5	0.999776387873
26	609288	5.25	0.999765199411
26	640954	5.5	0.999753689513
26	676141	5.75	0.999742079592
26	722830	6	0.999730412864
26	769768	6.25	0.999718803241
26	810379	6.5	0.99970708636
26	840713	6.75	0.999695441954
26	872702	7	0.999683835534
26	902007	7.25	0.999672923967
26	929820	7.5	0.999661716244
26	958360	7.75	0.999650733845
26	1000586	8	0.999639310898
26	1051449	8.25	0.999627600405
26	1078664	8.5	0.999615946349
26	1105646	8.75	0.999604290121
26	1132592	9	0.999592592276
26	1159140	9.25	0.999580927462
26	1171013	9.5	0.999573153251
26	1207927	9.75	0.999558233037
26	1246598	10	0.999546485731
26	1277729	10.25	0.999535443169
26	1305011	10.5	0.999524736986
26	1316939	10.75	0.999518232342
26	1316979	11	0.999503598887
26	1316999	11.25	0.999503598887
26	1317019	11.5	0.999503598887
26	1317039	11.75	0.999503598887
26	1317079	12	0.999462052993
26	1317099	12.25	0.999462052993
26	1317119	12.5	0.999462052993
26	1317139	12.75	0.999462052993
26	1317179	13	0.999420507099
26	1317199	13.25	0.999420507099
26	1317219	13.5	0.999420507099
26	1317239	13.75	0.999420507099
26	1317279	14	0.999378961205
26	1317299	14.25	0.999378961205
26	1317319	14.5	0.999378961205
26	1317339	14.75	0.999378961205
32	0	0	1
32	66	0.25	1
32	86	0.5	1
32	29039	0.75	0.999968109005
32	65300	1	0.999956745834
32	100674	1.25	0.999945474331
32	121071	1.5	0.999938113347
32	121091	1.75	0.999938113347
32	132549	2	0.99991386776
32	132569	2.25	0.99991386776
32	151408	2.5	0.999892786308
32	188381	2.75	0.999881585695
32	239284	3	0.99986983591
32	290663	3.25	0.999858146608
32	343676	3.5	0.999846427479
32	395548	3.75	0.999834740155
32	438780	4	0.999823145244
32	468020	4.25	0.999812091254
32	497403	4.5	0.999801001994
32	526030	4.75	0.999789635277
32	561128	5	0.999778095131
32	609289	5.25	0.999766430129
32	640955	5.5	0.999754813517
32	676142	5.75	0.999743193333
32	722831	6	0.999731522079
32	769769	6.25	0.999719899908
32	810380	6.5	0.999708280568
32	840714	6.75	0.999696528085
32	872703	7	0.999684743202
32	902008	7.25	0.999673820373
32	929821	7.5	0.99966261265
32	958361	7.75	0.999651630251
32	1000587	8	0.999640171975
32	1051450	8.25	0.999628509617
32	1078665	8.5	0.999616842755
32	1105647	8.75	0.999605212139
32	1132593	9	0.999593488681
32	1159141	9.25	0.999581823868
32	1171014	9.5	0.999574049656
32	1207928	9.75	0.999559302548
32	1246599	10	0.999547728347
32	1277730	10.25	0.999536550281
32	1305012	10.5	0.999525465282
32	1316940	10.75	0.999518864821
32	1316980	11	0.999504231366
32	1317000	11.25	0.999504231366
32	1317020	11.5	0.999504231366
32	1317040	11.75	0.999504231366
32	1317080	12	0.999462685472
32	1317100	12.25	0.999462685472
32	1317120	12.5	0.999462685472
32	1317140	12.75	0.999462685472
32	1317180	13	0.999421139578
32	1317200	13.25	0.999421139578
32	1317220	13.5	0.999421139578
32	1317240	13.75	0.999421139578
32	1317280	14	0.999379593685
32	1317300	14.25	0.999379593685
32	1317320	14.5	0.999379593685
32	1317340	14.75	0.999379593685
38	0	0	1
38	67	0.25	1
38	87	0.5	1
38	29040	0.75	0.999968020151
38	65301	1	0.999956454122
38	100675	1.25	0.99994506486
38	121072	1.5	0.99993772081
38	121092	1.75	0.99993772081
38	132550	2	0.999913344201
38	132570	2.25	0.999913344201
38	151409	2.5	0.999891814802
38	188382	2.75	0.999880255169
38	239285	3	0.999868881406
38	290664	3.25	0.999857921435
38	343677	3.5	0.999846540826
38	395549	3.75	0.999835595725
38	438781	4	0.99982506184
38	468021	4.25	0.999815141024
38	497404	4.5	0.999804278122
38	526031	4.75	0.999797836991
38	561129	5	0.999782724042
38	609290	5.25	0.99977090426
38	640956	5.5	0.999760394477
38	676143	5.75	0.99974963343
38	722832	6	0.99973886909
38	769770	6.25	0.999728183769
38	810381	6.5	0.999717753819
38	840715	6.75	0.999706808248
38	872704	7	0.999695985783
38	902009	7.25	0.999684982118
38	929822	7.5	0.999673996715
38	958362	7.75	0.999662696622
38	1000588	8	0.999651247957
38	1051451	8.25	0.999639795273
38	1078666	8.5	0.999629290353
38	1105648	8.75	0.999619031822
38	1132594	9	0.99960799263
38	1159142	9.25	0.999597440096
38	1171015	9.5	0.999595080827
38	1207929	9.75	0.999575712761
38	1246600	10	0.99956461697
38	1277731	10.25	0.999553523659
38	1305013	10.5	0.999542419651
38	1316941	10.75	0.999536041845
38	1316981	11	0.99952140839
38	1317001	11.25	0.99952140839
38	1317021	11.5	0.99952140839
38	1317041	11.75	0.99952140839
38	1317081	12	0.999479862496
38	1317101	12.25	0.999479862496
38	1317121	12.5	0.999479862496
38	1317141	12.75	0.999479862496
38	1317181	13	0.999438316603
38	1317201	13.25	0.999438316603
38	1317221	13.5	0.999438316603
38	1317241	13.75	0.999438316603
38	1317281	14	0.999396770709
38	1317301	14.25	0.999396770709
38	1317321	14.5	0.999396770709
38	1317341	14.75	0.999396770709
44	0	0	1
44	68	0.25	1
44	88	0.5	1
44	29041	0.75	0.999967828859
44	65302	1	0.999956067341
44	100676	1.25	0.999944467902
44	121073	1.5	0.999936569045
44	121093	1.75	0.999936569045
44	132551	2	0.999911896506
44	132571	2.25	0.999911896506
44	151410	2.5	0.999890246406
44	188383	2.75	0.999878503569
44	239286	3	0.999866840502
44	290665	3.25	0.999855292973
44	343678	3.5	0.999843551458
44	395550	3.75	0.999832088202
44	438782	4	0.999820544933
44	468022	4.25	0.999809101055
44	497405	4.5	0.999797657049
44	526032	4.75	0.999786284827
44	561130	5	0.999774754126
44	609291	5.25	0.999762922902
44	640957	5.5	0.999751505542
44	676144	5.75	0.999740039136
44	722833	6	0.999728892507
44	769771	6.25	0.99971778435
44	810382	6.5	0.999706421799
44	840716	6.75	0.999694908464
44	872705	7	0.999683338519
44	902010	7.25	0.999671544916
44	929823	7.5	0.99965991298
44	958363	7.75	0.999648223074
44	1000589	8	0.999636614462
44	1051452	8.25	0.999624940144
44	1078667	8.5	0.999613913099
44	1105649	8.75	0.999603188598
44	1132595	9	0.999591992411
44	1159143	9.25	0.999581149907
44	1171016	9.5	0.999573436733
44	1207930	9.75	0.999558651232
44	1246601	10	0.999546990577
44	1277732	10.25	0.999535481913
44	1305014	10.5	0.999523941477
44	1316942	10.75	0.999517341395
44	1316982	11	0.99950270794
44	1317002	11.25	0.99950270794
44	1317022	11.5	0.99950270794
44	1317042	11.75	0.99950270794
44	1317082	12	0.999461162046
44	1317102	12.25	0.999461162046
44	1317122	12.5	0.999461162046
44	1317142	12.75	0.999461162046
44	1317182	13	0.999419616152
44	1317202	13.25	0.999419616152
44	1317222	13.5	0.999419616152
44	1317242	13.75	0.999419616152
44	1317282	14	0.999378070259
44	1317302	14.25	0.999378070259
44	1317322	14.5	0.999378070259
44	1317342	14.75	0.999378070259
50	0	0	1
50	69	0.25	1
50	89	0.5	1
50	29042	0.75	0.999967784969
50	65303	1	0.999955970364
50	100677	1.25	0.999944316986
50	121074	1.5	0.999937010394
50	121094	1.75	0.999937010394
50	132552	2	0.999912798732
50	132572	2.25	0.999912798732
50	151411	2.5	0.999891132012
50	188384	2.75	0.999879478992
50	239287	3	0.99986783285
50	290666	3.25	0.999856397373
50	343679	3.5	0.999845134801
50	395551	3.75	0.999834240911
50	438783	4	0.999823323409
50	468023	4.25	0.999813395884
50	497406	4.5	0.999802532982
50	526033	4.75	0.999796091851
50	561131	5	0.999781269565
50	609292	5.25	0.999770334774
50	640958	5.5	0.999759767845
50	676145	5.75	0.999748893097
50	722834	6	0.999737574163
50	769772	6.25	0.999726259606
50	810383	6.5	0.999715526936
50	840717	6.75	0.999704581365
50	872706	7	0.999693529748
50	902011	7.25	0.999681946406
50	929824	7.5	0.999670263948
50	958364	7.75	0.999658567658
50	1000590	8	0.999646890079
50	1051453	8.25	0.999635347822
50	1078668	8.5	0.999624896647
50	1105650	8.75	0.99962219662
50	1132596	9	0.99960378743
50	1159144	9.25	0.999593364589
50	1171017	9.5	0.999591005319
50	1207931	9.75	0.999571306015
50	1246602	10	0.999559847766
50	1277733	10.25	0.999548514022
50	1305015	10.5	0.999537404911
50	1316943	10.75	0.999530958933
50	1316983	11	0.999516325478
50	1317003	11.25	0.999516325478
50	1317023	11.5	0.999516325478
50	1317043	11.75	0.999516325478
50	1317083	12	0.999474779584
50	1317103	12.25	0.999474779584
50	1317123	12.5	0.999474779584
50	1317143	12.75	0.999474779584
50	1317183	13	0.999433233691
50	1317203	13.25	0.999433233691
50	1317223	13.5	0.999433233691
50	1317243	13.75	0.999433233691
50	1317283	14	0.999391687797
50	1317303	14.25	0.999391687797
50	1317323	14.5	0.999391687797
50	1317343	14.75	0.999391687797
56	0	0	1
56	70	0.25	1
56	90	0.5	1
56	29043	0.75	0.999968358165
56	65304	1	0.999957338839
56	100678	1.25	0.999946298404
56	121075	1.5	0.999938855652
56	121095	1.75	0.999938855652
56	132553	2	0.999913672187
56	132573	2.25	0.999913672187
56	151412	2.5	0.99989198367
56	188385	2.75	0.999880251631
56	239288	3	0.999868327702
56	290667	3.25	0.999856479197
56	343680	3.5	0.999844611939
56	395552	3.75	0.999832729015
56	438784	4	0.999820807181
56	468024	4.25	0.999809051281
56	497407	4.5	0.999797254524
56	526034	4.75	0.999785313181
56	561132	5	0.999773482248
56	609293	5.25	0.999761581644
56	640959	5.5	0.999749758551
56	676146	5.75	0.999737933576
56	722835	6	0.999726056179
56	769773	6.25	0.999714176064
56	810384	6.5	0.999702268916
56	840718	6.75	0.999690410172
56	872707	7	0.99967876848
56	902012	7.25	0.99966706617
56	929825	7.5	0.999655387643
56	958365	7.75	0.999643709544
56	1000591	8	0.999631844885
56	1051454	8.25	0.999620041974
56	1078669	8.5	0.99960814477
56	1105651	8.75	0.99959623317
56	1132597	9	0.99958428866
56	1159145	9.25	0.999572381601
56	1171018	9.5	0.999564543652
56	1207932	9.75	0.999549748436
56	1246603	10	0.999538088235
56	1277734	10.25	0.999526568263
56	1305016	10.5	0.999515018358
56	1316944	10.75	0.999508304112
56	1316984	11	0.999493670657
56	1317004	11.25	0.999493670657
56	1317024	11.5	0.999493670657
56	1317044	11.75	0.999493670657
56	1317084	12	0.999452124763
56	1317104	12.25	0.999452124763
56	1317124	12.5	0.999452124763
56	1317144	12.75	0.999452124763
56	1317184	13	0.999410578869
56	1317204	13.25	0.999410578869
56	1317224	13.5	0.999410578869
56	1317244	13.75	0.999410578869
56	1317284	14	0.999369032975
56	1317304	14.25	0.999369032975
56	1317324	14.5	0.999369032975
56	1317344	14.75	0.999369032975
62	0	0	1
62	71	0.25	1
62	91	0.5	1
62	29044	0.75	0.999968264658
62	65305	1	0.999957112595
62	100679	1.25	0.999946077929
62	121076	1.5	0.999938317331
62	121096	1.75	0.999938317331
62	132554	2	0.999914071745
62	132574	2.25	0.999914071745
62	151413	2.5	0.999893203904
62	188386	2.75	0.999882151741
62	239289	3	0.999870436424
62	290668	3.25	0.999858833678
62	343681	3.5	0.999847651545
62	395553	3.75	0.99983671323
62	438785	4	0.999825522464
62	468025	4.25	0.999813839979
62	497408	4.5	0.99980210725
62	526035	4.75	0.999790396412
62	561133	5	0.999778693241
62	609294	5.25	0.999767022609
62	640960	5.5	0.999755325998
62	676147	5.75	0.999743618875
62	722836	6	0.999731953782
62	769774	6.25	0.999720440221
62	810385	6.5	0.99970877047
62	840719	6.75	0.999696947055
62	872708	7	0.999685237749
62	902013	7.25	0.99967478983
62	929826	7.5	0.999663613415
62	958366	7.75	0.999652900466
62	1000592	8	0.999641636407
62	1051455	8.25	0.999629945449
62	1078670	8.5	0.999618278587
62	1105652	8.75	0.999606635165
62	1132598	9	0.999594911708
62	1159146	9.25	0.9995832597
62	1171019	9.5	0.999575485488
62	1207933	9.75	0.999560783588
62	1246604	10	0.999549216802
62	1277735	10.25	0.999538093993
62	1305017	10.5	0.999527008994
62	1316945	10.75	0.999520408533
62	1316985	11	0.999505775078
62	1317005	11.25	0.999505775078
62	1317025	11.5	0.999505775078
62	1317045	11.75	0.999505775078
62	1317085	12	0.999464229184
62	1317105	12.25	0.999464229184
62	1317125	12.5	0.999464229184
62	1317145	12.75	0.999464229184
62	1317185	13	0.99942268329
62	1317205	13.25	0.99942268329
62	1317225	13.5	0.99942268329
62	1317245	13.75	0.99942268329
62	1317285	14	0.999381137397
62	1317305	14.25	0.999381137397
62	1317325	14.5	0.999381137397
62	1317345	14.75	0.999381137397
68	0	0	1
68	72	0.25	1
68	92	0.5	1
68	29045	0.75	0.999968112547
68	65306	1	0.99995676527
68	100680	1.25	0.99994554499
68	121077	1.5	0.999938248035
68	121097	1.75	0.999938248035
68	132555	2	0.999914002448
68	132575	2.25	0.999914002448
68	151414	2.5	0.999892920996
68	188387	2.75	0.999881733189
68	239290	3	0.999869970598
68	290669	3.25	0.999858281296
68	343682	3.5	0.999846549361
68	395554	3.75	0.999834839514
68	438786	4	0.999823154599
68	468026	4.25	0.999811403465
68	497409	4.5	0.999799731677
68	526036	4.75	0.999788084868
68	561134	5	0.999776330474
68	609295	5.25	0.999764702891
68	640961	5.5	0.999753119337
68	676148	5.75	0.999741764896
68	722837	6	0.999730634831
68	769775	6.25	0.999719217931
68	810386	6.5	0.999707591417
68	840720	6.75	0.99969597235
68	872709	7	0.999684461656
68	902014	7.25	0.999673651446
68	929827	7.5	0.999662505662
68	958367	7.75	0.999651523264
68	1000593	8	0.999640074705
68	1051456	8.25	0.999628412347
68	1078671	8.5	0.99961673268
68	1105653	8.75	0.999605063646
68	1132599	9	0.999593391412
68	1159147	9.25	0.999581713793
68	1171020	9.5	0.999573939581
68	1207934	9.75	0.999559154056
68	1246605	10	0.999547537895
68	1277736	10.25	0.999536458279
68	1305018	10.5	0.99952537328
68	1316946	10.75	0.999518772819
68	1316986	11	0.999504139364
68	1317006	11.25	0.999504139364
68	1317026	11.5	0.999504139364
68	1317046	11.75	0.999504139364
68	1317086	12	0.99946259347
68	1317106	12.25	0.99946259347
68	1317126	12.5	0.99946259347
68	1317146	12.75	0.99946259347
68	1317186	13	0.999421047576
68	1317206	13.25	0.999421047576
68	1317226	13.5	0.999421047576
68	1317246	13.75	0.999421047576
68	1317286	14	0.999379501683
68	1317306	14.25	0.999379501683
68	1317326	14.5	0.999379501683
68	1317346	14.75	0.999379501683
74	0	0	1
74	73	0.25	1
74	93	0.5	1
74	29046	0.75	0.999967857573
74	65307	1	0.999956210918
74	100681	1.25	0.999944586476
74	121078	1.5	0.999937187183
74	121098	1.75	0.999937187183
74	132556	2	0.999912033963
74	132576	2.25	0.999912033963
74	151415	2.5	0.999890345446
74	188388	2.75	0.999878624787
74	239291	3	0.999867001843
74	290670	3.25	0.999855370055
74	343683	3.5	0.999843838644
74	395555	3.75	0.999832242671
74	438787	4	0.999820549192
74	468027	4.25	0.999810621668
74	497410	4.5	0.999799758765
74	526037	4.75	0.999793317635
74	561135	5	0.999778345549
74	609296	5.25	0.999766993406
74	640962	5.5	0.999756376326
74	676149	5.75	0.999745504508
74	722838	6	0.999734112281
74	769776	6.25	0.999722788006
74	810387	6.5	0.999712148064
74	840721	6.75	0.999701202493
74	872710	7	0.999690160595
74	902015	7.25	0.999678574165
74	929828	7.5	0.999666951057
74	958368	7.75	0.999655660419
74	1000594	8	0.999644583509
74	1051457	8.25	0.999633513681
74	1078672	8.5	0.999623049594
74	1105654	8.75	0.999620383352
74	1132600	9	0.999601979793
74	1159148	9.25	0.99959157666
74	1171021	9.5	0.999589324378
74	1207935	9.75	0.999569625101
74	1246606	10	0.999558172606
74	1277737	10.25	0.999547298505
74	1305019	10.5	0.99953633071
74	1316947	10.75	0.999529901611
74	1316987	11	0.999515268156
74	1317007	11.25	0.999515268156
74	1317027	11.5	0.999515268156
74	1317047	11.75	0.999515268156
74	1317087	12	0.999473722262
74	1317107	12.25	0.999473722262
74	1317127	12.5	0.999473722262
74	1317147	12.75	0.999473722262
74	1317187	13	0.999432176369
74	1317207	13.25	0.999432176369
74	1317227	13.5	0.999432176369
74	1317247	13.75	0.999432176369
74	1317287	14	0.999390630475
74	1317307	14.25	0.999390630475
74	1317327	14.5	0.999390630475
74	1317347	14.75	0.999390630475
80	0	0	1
80	74	0.25	1
80	94	0.5	1
80	29047	0.75	0.999968264658
80	65308	1	0.999957112595
80	100682	1.25	0.999946077929
80	121079	1.5	0.999938317331
80	121099	1.75	0.999938317331
80	132557	2	0.999914071745
80	132577	2.25	0.999914071745
80	151416	2.5	0.999893203904
80	188389	2.75	0.999882151741
80	239292	3	0.999870487648
80	290671	3.25	0.999859079622
80	343684	3.5	0.999847539017
80	395556	3.75	0.999835873951
80	438788	4	0.999824206918
80	468028	4.25	0.999812472211
80	497411	4.5	0.999800739482
80	526038	4.75	0.999789028644
80	561136	5	0.999777351085
80	609297	5.25	0.99976568354
80	640963	5.5	0.999754009453
80	676150	5.75	0.999742263913
80	722839	6	0.99973058556
80	769777	6.25	0.999718838861
80	810388	6.5	0.999706980565
80	840722	6.75	0.999695160238
80	872711	7	0.999683722487
80	902016	7.25	0.999673437048
80	929829	7.5	0.999662260632
80	958369	7.75	0.999651547683
80	1000595	8	0.999640248765
80	1051458	8.25	0.999628567055
80	1078673	8.5	0.999616925804
80	1105655	8.75	0.999605834212
80	1132601	9	0.999594799223
80	1159149	9.25	0.999583762759
80	1171022	9.5	0.999576179998
80	1207936	9.75	0.999561478098
80	1246607	10	0.999549911312
80	1277738	10.25	0.999538788503
80	1305020	10.5	0.999527703504
80	1316948	10.75	0.999521103043
80	1316988	11	0.999506469588
80	1317008	11.25	0.999506469588
80	1317028	11.5	0.999506469588
80	1317048	11.75	0.999506469588
80	1317088	12	0.999464923694
80	1317108	12.25	0.999464923694
80	1317128	12.5	0.999464923694
80	1317148	12.75	0.999464923694
80	1317188	13	0.999423377801
80	1317208	13.25	0.999423377801
80	1317228	13.5	0.999423377801
80	1317248	13.75	0.999423377801
80	1317288	14	0.999381831907
80	1317308	14.25	0.999381831907
80	1317328	14.5	0.999381831907
80	1317348	14.75	0.999381831907
86	0	0	1
86	75	0.25	1
86	95	0.5	1
86	29048	0.75	0.999968259139
86	65309	1	0.999957099447
86	100683	1.25	0.999946036375
86	121080	1.5	0.99993826263
86	121100	1.75	0.99993826263
86	132558	2	0.999913211859
86	132578	2.25	0.999913211859
86	151417	2.5	0.999892275357
86	188390	2.75	0.999881092487
86	239293	3	0.999869262486
86	290672	3.25	0.999857768233
86	343685	3.5	0.999846139713
86	395557	3.75	0.999834312892
86	438789	4	0.999822592547
86	468029	4.25	0.999810767382
86	497412	4.5	0.999798954276
86	526039	4.75	0.999787122191
86	561137	5	0.99977531655
86	609298	5.25	0.999763550605
86	640964	5.5	0.999751722914
86	676151	5.75	0.99973994399
86	722840	6	0.999728231666
86	769778	6.25	0.999716705927
86	810389	6.5	0.999705201032
86	840723	6.75	0.999693657164
86	872712	7	0.999682322489
86	902017	7.25	0.999671899567
86	929830	7.5	0.999660731954
86	958370	7.75	0.99964996589
86	1000596	8	0.999638570042
86	1051459	8.25	0.999626781406
86	1078674	8.5	0.999615018945
86	1105656	8.75	0.999603406674
86	1132602	9	0.999591744023
86	1159150	9.25	0.999580077712
86	1171023	9.5	0.999572659682
86	1207937	9.75	0.99955796514
86	1246608	10	0.999546427084
86	1277739	10.25	0.999535484801
86	1305021	10.5	0.999524449553
86	1316949	10.75	0.999517989984
86	1316989	11	0.999503356529
86	1317009	11.25	0.999503356529
86	1317029	11.5	0.999503356529
86	1317049	11.75	0.999503356529
86	1317089	12	0.999461810635
86	1317109	12.25	0.999461810635
86	1317129	12.5	0.999461810635
86	1317149	12.75	0.999461810635
86	1317189	13	0.999420264742
86	1317209	13.25	0.999420264742
86	1317229	13.5	0.999420264742
86	1317249	13.75	0.999420264742
86	1317289	14	0.999378718848
86	1317309	14.25	0.999378718848
86	1317329	14.5	0.999378718848
86	1317349	14.75	0.999378718848
92	0	0	1
92	76	0.25	1
92	96	0.5	1
92	29049	0.75	0.999967892449
92	65310	1	0.999956239164
92	100684	1.25	0.999944589564
92	121081	1.5	0.999937190271
92	121101	1.75	0.999937190271
92	132559	2	0.999912037051
92	132579	2.25	0.999912037051
92	151418	2.5	0.999890857133
92	188391	2.75	0.999879805736
92	239294	3	0.999868725449
92	290673	3.25	0.999857180123
92	343686	3.5	0.999845692306
92	395558	3.75	0.999834107141
92	438790	4	0.999822444632
92	468030	4.25	0.999812519923
92	497413	4.5	0.99980165702
92	526040	4.75	0.99979521589
92	561138	5	0.999780269415
92	609299	5.25	0.999768878855
92	640965	5.5	0.999758274582
92	676152	5.75	0.999747396133
92	722841	6	0.999736054675
92	769779	6.25	0.999724691075
92	810390	6.5	0.99971401317
92	840724	6.75	0.999703067598
92	872713	7	0.999692048338
92	902018	7.25	0.999680416746
92	929831	7.5	0.999668732698
92	958371	7.75	0.999657140896
92	1000597	8	0.999645471014
92	1051460	8.25	0.999633775609
92	1078675	8.5	0.999623258029
92	1105657	8.75	0.999620558001
92	1132603	9	0.999602148811
92	1159151	9.25	0.999591725971
92	1171024	9.5	0.999589366701
92	1207938	9.75	0.999569689947
92	1246609	10	0.999558246717
92	1277740	10.25	0.999546908972
92	1305022	10.5	0.999535872699
92	1316950	10.75	0.99952954868
92	1316990	11	0.999514915225
92	1317010	11.25	0.999514915225
92	1317030	11.5	0.999514915225
92	1317050	11.75	0.999514915225
92	1317090	12	0.999473369331
92	1317110	12.25	0.999473369331
92	1317130	12.5	0.999473369331
92	1317150	12.75	0.999473369331
92	1317190	13	0.999431823437
92	1317210	13.25	0.999431823437
92	1317230	13.5	0.999431823437
92	1317250	13.75	0.999431823437
92	1317290	14	0.999390277544
92	1317310	14.25	0.999390277544
92	1317330	14.5	0.999390277544
92	1317350	14.75	0.999390277544
98	0	0	1
98	77	0.25	1
98	97	0.5	1
98	29050	0.75	0.999967857573
98	65311	1	0.99995611156
98	100685	1.25	0.999944560864
98	121082	1.5	0.9999372543
98	121102	1.75	0.9999372543
98	132560	2	0.99991258176
98	132580	2.25	0.99991258176
98	151419	2.5	0.999890906049
98	188392	2.75	0.99987918539
98	239295	3	0.999867616757
98	290674	3.25	0.999856053361
98	343687	3.5	0.999844386036
98	395559	3.75	0.999832773325
98	438791	4	0.999821588989
98	468031	4.25	0.999811661465
98	497414	4.5	0.999800798562
98	526041	4.75	0.999794357432
98	561139	5	0.999779244482
98	609300	5.25	0.99976741185
98	640966	5.5	0.999756840545
98	676153	5.75	0.99974597799
98	722842	6	0.999734624181
98	769780	6.25	0.999723313166
98	810391	6.5	0.999712577861
98	840725	6.75	0.99970163229
98	872714	7	0.99969078811
98	902019	7.25	0.999679750058
98	929832	7.5	0.999668640364
98	958372	7.75	0.999657195693
98	1000598	8	0.999645497111