version 2
run Nine-0-20091217-15:09:48-32093
attr configname Nine
attr datetime 20091217-15:09:48
attr experiment Nine
attr inifile omnetpp.ini
attr iterationvars ""
attr iterationvars2 $repetition=0
attr measurement ""
attr network sim
attr processid 32093
attr repetition 0
attr replication #0
attr resultdir results
attr runnumber 0
attr seedset 0

vector 2  sim.host[0].batteryStats  capacity(relative)  ETV
vector 7  sim.host[1].batteryStats  capacity(relative)  ETV
vector 12  sim.host[2].batteryStats  capacity(relative)  ETV
vector 17  sim.host[3].batteryStats  capacity(relative)  ETV
vector 22  sim.host[4].batteryStats  capacity(relative)  ETV
vector 27  sim.host[5].batteryStats  capacity(relative)  ETV
vector 32  sim.host[6].batteryStats  capacity(relative)  ETV
vector 37  sim.host[7].batteryStats  capacity(relative)  ETV
vector 42  sim.host[8].batteryStats  capacity(relative)  ETV
vector 47  sim.host[9].batteryStats  capacity(relative)  ETV
vector 52  sim.host[10].batteryStats  capacity(relative)  ETV
vector 57  sim.host[11].batteryStats  capacity(relative)  ETV
vector 62  sim.host[12].batteryStats  capacity(relative)  ETV
vector 67  sim.host[13].batteryStats  capacity(relative)  ETV
vector 72  sim.host[14].batteryStats  capacity(relative)  ETV
vector 77  sim.host[15].batteryStats  capacity(relative)  ETV
vector 82  sim.host[16].batteryStats  capacity(relative)  ETV
vector 87  sim.host[17].batteryStats  capacity(relative)  ETV
vector 92  sim.host[18].batteryStats  capacity(relative)  ETV
vector 97  sim.host[19].batteryStats  capacity(relative)  ETV
2	0	0	1
2	61	0.25	1
2	81	0.5	1
2	22986	0.75	0.999969331422
2	23026	1	0.999957600785
2	23046	1.25	0.999957600785
2	23066	1.5	0.999957600785
2	23086	1.75	0.999957600785
2	25339	2	0.999915953874
2	25359	2.25	0.999915953874
2	42012	2.5	0.999895026835
2	53499	2.75	0.99988377625
2	75200	3	0.999872935239
2	82168	3.25	0.99986480985
2	96994	3.5	0.999853548262
2	102448	3.75	0.999848037113
2	116174	4	0.999829954407
2	123014	4.25	0.99982724035
2	131809	4.5	0.999808558875
2	139470	4.75	0.999805335708
2	147687	5	0.999787057024
2	170630	5.25	0.999777350119
2	170650	5.5	0.999777350119
2	193935	5.75	0.999754203622
2	201469	6	0.999743465538
2	201489	6.25	0.999743465538
2	201509	6.5	0.999743465538
2	201529	6.75	0.999743465538
2	209196	7	0.999701603326
2	216331	7.25	0.999698177489
2	220076	7.5	0.999680279233
2	232191	7.75	0.999674840118
2	244519	8	0.999658670699
2	244539	8.25	0.999658670699
2	244559	8.5	0.999658670699
2	258238	8.75	0.999629898372
2	258278	9	0.999616894638
2	258298	9.25	0.999616894638
2	258318	9.5	0.999616894638
2	282379	9.75	0.999587293575
2	282419	10	0.999574489449
2	282439	10.25	0.999574489449
2	282459	10.5	0.999574489449
2	282479	10.75	0.999574489449
2	282519	11	0.999532943555
2	282539	11.25	0.999532943555
2	282559	11.5	0.999532943555
2	282579	11.75	0.999532943555
2	282619	12	0.999491397662
2	282639	12.25	0.999491397662
2	282659	12.5	0.999491397662
2	282679	12.75	0.999491397662
2	282719	13	0.999449851768
2	282739	13.25	0.999449851768
2	282759	13.5	0.999449851768
2	282779	13.75	0.999449851768
2	282819	14	0.999408305874
2	282839	14.25	0.999408305874
2	282859	14.5	0.999408305874
2	282879	14.75	0.999408305874
7	0	0	1
7	62	0.25	1
7	82	0.5	1
7	22987	0.75	0.999969483593
7	23027	1	0.999957752955
7	23047	1.25	0.999957752955
7	23067	1.5	0.999957752955
7	23087	1.75	0.999957752955
7	25340	2	0.999916051078
7	25360	2.25	0.999916051078
7	42013	2.5	0.999895120951
7	53500	2.75	0.999884965438
7	75201	3	0.999872955086
7	82169	3.25	0.999864869929
7	96995	3.5	0.999864869929
7	102449	3.75	0.999848465619
7	116175	4	0.999830765196
7	123015	4.25	0.999828247469
7	131810	4.5	0.999810151489
7	139471	4.75	0.999807421068
7	147688	5	0.999788859637
7	170631	5.25	0.999779918629
7	170651	5.5	0.999779918629
7	193936	5.75	0.999756986428
7	201470	6	0.999746241691
7	201490	6.25	0.999746241691
7	201510	6.5	0.999746241691
7	201530	6.75	0.999746241691
7	209197	7	0.999704310613
7	216332	7.25	0.999700890566
7	220077	7.5	0.999683014833
7	232192	7.75	0.999677562912
7	244520	8	0.999661650498
7	244540	8.25	0.999661650498
7	244560	8.5	0.999661650498
7	258239	8.75	0.999661650498
7	258279	9	0.999620104605
7	258299	9.25	0.999620104605
7	258319	9.5	0.999620104605
7	282380	9.75	0.999590664255
7	282420	10	0.999577860129
7	282440	10.25	0.999577860129
7	282460	10.5	0.999577860129
7	282480	10.75	0.999577860129
7	282520	11	0.999536314236
7	282540	11.25	0.999536314236
7	282560	11.5	0.999536314236
7	282580	11.75	0.999536314236
7	282620	12	0.999494768342
7	282640	12.25	0.999494768342
7	282660	12.5	0.999494768342
7	282680	12.75	0.999494768342
7	282720	13	0.999453222448
7	282740	13.25	0.999453222448
7	282760	13.5	0.999453222448
7	282780	13.75	0.999453222448
7	282820	14	0.999411676555
7	282840	14.25	0.999411676555
7	282860	14.5	0.999411676555
7	282880	14.75	0.999411676555
12	0	0	1
12	63	0.25	1
12	83	0.5	1
12	22988	0.75	0.999969333057
12	23028	1	0.999957602419
12	23048	1.25	0.999957602419
12	23068	1.5	0.999957602419
12	23088	1.75	0.999957602419
12	25341	2	0.999915987096
12	25361	2.25	0.999915987096
12	42014	2.5	0.99989504725
12	53501	2.75	0.999884891737
12	75202	3	0.999872876841
12	82170	3.25	0.999864966608
12	96996	3.5	0.999864966608
12	102450	3.75	0.999848562297
12	116176	4	0.999830861874
12	123016	4.25	0.999828344147
12	131811	4.5	0.999810248168
12	139472	4.75	0.999807517746
12	147689	5	0.999788777391
12	170632	5.25	0.999779753379
12	170652	5.5	0.999779753379
12	193937	5.75	0.999756821178
12	201471	6	0.999746076441
12	201491	6.25	0.999746076441
12	201511	6.5	0.999746076441
12	201531	6.75	0.999746076441
12	209198	7	0.999704145363
12	216333	7.25	0.999700725315
12	220078	7.5	0.999682836777
12	232193	7.75	0.999677403838
12	244521	8	0.999661491424
12	244541	8.25	0.999661491424
12	244561	8.5	0.999661491424
12	258240	8.75	0.999634348235
12	258280	9	0.999619863722
12	258300	9.25	0.999619863722
12	258320	9.5	0.999619863722
12	282381	9.75	0.999590382321
12	282421	10	0.999577578195
12	282441	10.25	0.999577578195
12	282461	10.5	0.999577578195
12	282481	10.75	0.999577578195
12	282521	11	0.999536032301
12	282541	11.25	0.999536032301
12	282561	11.5	0.999536032301
12	282581	11.75	0.999536032301
12	282621	12	0.999494486408
12	282641	12.25	0.999494486408
12	282661	12.5	0.999494486408
12	282681	12.75	0.999494486408
12	282721	13	0.999452940514
12	282741	13.25	0.999452940514
12	282761	13.5	0.999452940514
12	282781	13.75	0.999452940514
12	282821	14	0.99941139462
12	282841	14.25	0.99941139462
12	282861	14.5	0.99941139462
12	282881	14.75	0.99941139462
17	0	0	1
17	64	0.25	1
17	84	0.5	1
17	22989	0.75	0.999969471353
17	23029	1	0.999957740715
17	23049	1.25	0.999957740715
17	23069	1.5	0.999957740715
17	23089	1.75	0.999957740715
17	25342	2	0.999916194821
17	25362	2.25	0.999916194821
17	42015	2.5	0.999895754802
17	53502	2.75	0.999884188711
17	75203	3	0.999873056089
17	82171	3.25	0.999865557487
17	96997	3.5	0.999853619545
17	102451	3.75	0.999848236597
17	116177	4	0.999830015522
17	123017	4.25	0.999827269382
17	131812	4.5	0.999808608471
17	139473	4.75	0.999805220015
17	147690	5	0.999787327971
17	170633	5.25	0.999777534786
17	170653	5.5	0.999777534786
17	193938	5.75	0.999754624718
17	201472	6	0.999744007563
17	201492	6.25	0.999744007563
17	201512	6.5	0.999744007563
17	201532	6.75	0.999744007563
17	209199	7	0.99970231304
17	216334	7.25	0.999699112614
17	220079	7.5	0.999681323552
17	232194	7.75	0.999676915585
17	244522	8	0.9996596968
17	244542	8.25	0.9996596968
17	244562	8.5	0.9996596968
17	258241	8.75	0.999630485441
17	258281	9	0.999617492425
17	258301	9.25	0.999617492425
17	258321	9.5	0.999617492425
17	282382	9.75	0.999588073733
17	282422	10	0.999575269608
17	282442	10.25	0.999575269608
17	282462	10.5	0.999575269608
17	282482	10.75	0.999575269608
17	282522	11	0.999533723714
17	282542	11.25	0.999533723714
17	282562	11.5	0.999533723714
17	282582	11.75	0.999533723714
17	282622	12	0.99949217782
17	282642	12.25	0.99949217782
17	282662	12.5	0.99949217782
17	282682	12.75	0.99949217782
17	282722	13	0.999450631926
17	282742	13.25	0.999450631926
17	282762	13.5	0.999450631926
17	282782	13.75	0.999450631926
17	282822	14	0.999409086033
17	282842	14.25	0.999409086033
17	282862	14.5	0.999409086033
17	282882	14.75	0.999409086033
22	0	0	1
22	65	0.25	1
22	85	0.5	1
22	22990	0.75	0.999969471353
22	23030	1	0.999957740715
22	23050	1.25	0.999957740715
22	23070	1.5	0.999957740715
22	23090	1.75	0.999957740715
22	25343	2	0.999916194821
22	25363	2.25	0.999916194821
22	42016	2.5	0.999895754802
22	53503	2.75	0.999884156924
22	75204	3	0.999873007277
22	82172	3.25	0.999865508675
22	96998	3.5	0.999853573821
22	102452	3.75	0.999848190873
22	116178	4	0.999829975974
22	123018	4.25	0.999827229834
22	131813	4.5	0.999808769456
22	139474	4.75	0.999805560782
22	147691	5	0.999787668738
22	170634	5.25	0.99977786234
22	170654	5.5	0.99977786234
22	193939	5.75	0.99975462545
22	201473	6	0.999744008296
22	201493	6.25	0.999744008296
22	201513	6.5	0.999744008296
22	201533	6.75	0.999744008296
22	209200	7	0.999702313772
22	216335	7.25	0.999699113346
22	220080	7.5	0.999681324284
22	232195	7.75	0.999676916317
22	244523	8	0.999659685181
22	244543	8.25	0.999659685181
22	244563	8.5	0.999659685181
22	258242	8.75	0.999630469006
22	258282	9	0.99961747599
22	258302	9.25	0.99961747599
22	258322	9.5	0.99961747599
22	282383	9.75	0.999588028145
22	282423	10	0.999575224019
22	282443	10.25	0.999575224019
22	282463	10.5	0.999575224019
22	282483	10.75	0.999575224019
22	282523	11	0.999533678126
22	282543	11.25	0.999533678126
22	282563	11.5	0.999533678126
22	282583	11.75	0.999533678126
22	282623	12	0.999492132232
22	282643	12.25	0.999492132232
22	282663	12.5	0.999492132232
22	282683	12.75	0.999492132232
22	282723	13	0.999450586338
22	282743	13.25	0.999450586338
22	282763	13.5	0.999450586338
22	282783	13.75	0.999450586338
22	282823	14	0.999409040444
22	282843	14.25	0.999409040444
22	282863	14.5	0.999409040444
22	282883	14.75	0.999409040444
27	0	0	1
27	66	0.25	1
27	86	0.5	1
27	22991	0.75	0.999969611308
27	23031	1	0.999957880671
27	23051	1.25	0.999957880671
27	23071	1.5	0.999957880671
27	23091	1.75	0.999957880671
27	25344	2	0.999916334777
27	25364	2.25	0.999916334777
27	42017	2.5	0.999895894758
27	53504	2.75	0.999884293337
27	75205	3	0.999873156497
27	82173	3.25	0.999865657895
27	96999	3.5	0.999853719953
27	102453	3.75	0.999848337005
27	116179	4	0.999830429855
27	123019	4.25	0.9998278288
27	131814	4.5	0.999809167889
27	139475	4.75	0.999805772396
27	147692	5	0.999787880352
27	170635	5.25	0.999778093797
27	170655	5.5	0.999778093797
27	193940	5.75	0.99975484535
27	201474	6	0.999744228195
27	201494	6.25	0.999744228195
27	201514	6.5	0.999744228195
27	201534	6.75	0.999744228195
27	209201	7	0.999702533671
27	216336	7.25	0.999699333246
27	220081	7.5	0.999681544184
27	232196	7.75	0.999677136216
27	244524	8	0.999659921382
27	244544	8.25	0.999659921382
27	244564	8.5	0.999659921382
27	258243	8.75	0.99963067878
27	258283	9	0.999617685764
27	258303	9.25	0.999617685764
27	258323	9.5	0.999617685764
27	282384	9.75	0.999588245411
27	282424	10	0.999575441285
27	282444	10.25	0.999575441285
27	282464	10.5	0.999575441285
27	282484	10.75	0.999575441285
27	282524	11	0.999533895391
27	282544	11.25	0.999533895391
27	282564	11.5	0.999533895391
27	282584	11.75	0.999533895391
27	282624	12	0.999492349497
27	282644	12.25	0.999492349497
27	282664	12.5	0.999492349497
27	282684	12.75	0.999492349497
27	282724	13	0.999450803604
27	282744	13.25	0.999450803604
27	282764	13.5	0.999450803604
27	282784	13.75	0.999450803604
27	282824	14	0.99940925771
27	282844	14.25	0.99940925771
27	282864	14.5	0.99940925771
27	282884	14.75	0.99940925771
32	0	0	1
32	67	0.25	1
32	87	0.5	1
32	22992	0.75	0.999969567446
32	23032	1	0.999957836808
32	23052	1.25	0.999957836808
32	23072	1.5	0.999957836808
32	23092	1.75	0.999957836808
32	25345	2	0.99991625536
32	25365	2.25	0.99991625536
32	42018	2.5	0.999895421117
32	53505	2.75	0.999885265604
32	75206	3	0.999873619171
32	82174	3.25	0.999865545551
32	97000	3.5	0.999865545551
32	102454	3.75	0.999865545551
32	116180	4	0.999831669687
32	123020	4.25	0.999829151959
32	131815	4.5	0.99981105598
32	139476	4.75	0.999808325559
32	147693	5	0.999789474244
32	170636	5.25	0.999780471008
32	170656	5.5	0.999780471008
32	193941	5.75	0.999757821858
32	201475	6	0.999747239689
32	201495	6.25	0.999747239689
32	201515	6.5	0.999747239689
32	201535	6.75	0.999747239689
32	209202	7	0.999705617776
32	216337	7.25	0.99970234106
32	220082	7.5	0.999684435741
32	232197	7.75	0.999679067194
32	244525	8	0.999663154781
32	244545	8.25	0.999663154781
32	244565	8.5	0.999663154781
32	258244	8.75	0.999636011592
32	258284	9	0.999621527078
32	258304	9.25	0.999621527078
32	258324	9.5	0.999621527078
32	282385	9.75	0.999592272761
32	282425	10	0.999579468636
32	282445	10.25	0.999579468636
32	282465	10.5	0.999579468636
32	282485	10.75	0.999579468636
32	282525	11	0.999537922742
32	282545	11.25	0.999537922742
32	282565	11.5	0.999537922742
32	282585	11.75	0.999537922742
32	282625	12	0.999496376848
32	282645	12.25	0.999496376848
32	282665	12.5	0.999496376848
32	282685	12.75	0.999496376848
32	282725	13	0.999454830955
32	282745	13.25	0.999454830955
32	282765	13.5	0.999454830955
32	282785	13.75	0.999454830955
32	282825	14	0.999413285061
32	282845	14.25	0.999413285061
32	282865	14.5	0.999413285061
32	282885	14.75	0.999413285061
37	0	0	1
37	68	0.25	1
37	88	0.5	1
37	22993	0.75	0.99996933451
37	23033	1	0.999957603872
37	23053	1.25	0.999957603872
37	23073	1.5	0.999957603872
37	23093	1.75	0.999957603872
37	25346	2	0.999915956962
37	25366	2.25	0.999915956962
37	42019	2.5	0.999895033011
37	53506	2.75	0.999883782425
37	75207	3	0.999872611915
37	82175	3.25	0.999864486527
37	97001	3.5	0.999853224938
37	102455	3.75	0.999847719965
37	116181	4	0.999829637259
37	123021	4.25	0.999826923202
37	131816	4.5	0.999808241727
37	139477	4.75	0.99980501856
37	147694	5	0.999786733701
37	170637	5.25	0.999777017532
37	170657	5.5	0.999777017532
37	193942	5.75	0.999754066936
37	201476	6	0.999743490605
37	201496	6.25	0.999743490605
37	201516	6.5	0.999743490605
37	201536	6.75	0.999743490605
37	209203	7	0.999701608957
37	216338	7.25	0.999698208732
37	220083	7.5	0.999680316651
37	232198	7.75	0.999674867818
37	244526	8	0.9996586984
37	244546	8.25	0.9996586984
37	244566	8.5	0.9996586984
37	258245	8.75	0.999629926073
37	258285	9	0.999616922338
37	258305	9.25	0.999616922338
37	258325	9.5	0.999616922338
37	282386	9.75	0.999587312012
37	282426	10	0.999574507886
37	282446	10.25	0.999574507886
37	282466	10.5	0.999574507886
37	282486	10.75	0.999574507886
37	282526	11	0.999532961992
37	282546	11.25	0.999532961992
37	282566	11.5	0.999532961992
37	282586	11.75	0.999532961992
37	282626	12	0.999491416098
37	282646	12.25	0.999491416098
37	282666	12.5	0.999491416098
37	282686	12.75	0.999491416098
37	282726	13	0.999449870205
37	282746	13.25	0.999449870205
37	282766	13.5	0.999449870205
37	282786	13.75	0.999449870205
37	282826	14	0.999408324311
37	282846	14.25	0.999408324311
37	282866	14.5	0.999408324311
37	282886	14.75	0.999408324311
42	0	0	1
42	69	0.25	1
42	89	0.5	1
42	22994	0.75	0.999969416706
42	23034	1	0.999957686068
42	23054	1.25	0.999957686068
42	23074	1.5	0.999957686068
42	23094	1.75	0.999957686068
42	25347	2	0.999916140174
42	25367	2.25	0.999916140174
42	42020	2.5	0.999895220172
42	53507	2.75	0.999885064659
42	75208	3	0.999873107915
42	82176	3.25	0.999865493039
42	97002	3.5	0.999865493039
42	102456	3.75	0.999848907892
42	116182	4	0.999831218187
42	123022	4.25	0.99982870046
42	131817	4.5	0.999810604481
42	139478	4.75	0.999807874059
42	147695	5	0.99978926298
42	170638	5.25	0.999780288417
42	170658	5.5	0.999780288417
42	193943	5.75	0.999757389137
42	201477	6	0.999746676211
42	201497	6.25	0.999746676211
42	201517	6.5	0.999746676211
42	201537	6.75	0.999746676211
42	209204	7	0.9997048016
42	216339	7.25	0.999701388569
42	220084	7.5	0.999683507658
42	232199	7.75	0.999678078079
42	244527	8	0.999662165666
42	244547	8.25	0.999662165666
42	244567	8.5	0.999662165666
42	258246	8.75	0.999662165666
42	258286	9	0.999620619772
42	258306	9.25	0.999620619772
42	258326	9.5	0.999620619772
42	282387	9.75	0.999591157471
42	282427	10	0.999578353345
42	282447	10.25	0.999578353345
42	282467	10.5	0.999578353345
42	282487	10.75	0.999578353345
42	282527	11	0.999536807451
42	282547	11.25	0.999536807451
42	282567	11.5	0.999536807451
42	282587	11.75	0.999536807451
42	282627	12	0.999495261557
42	282647	12.25	0.999495261557
42	282667	12.5	0.999495261557
42	282687	12.75	0.999495261557
42	282727	13	0.999453715664
42	282747	13.25	0.999453715664
42	282767	13.5	0.999453715664
42	282787	13.75	0.999453715664
42	282827	14	0.99941216977
42	282847	14.25	0.99941216977
42	282867	14.5	0.99941216977
42	282887	14.75	0.99941216977
47	0	0	1
47	70	0.25	1
47	90	0.5	1
47	22995	0.75	0.999969753832
47	23035	1	0.999958023194
47	23055	1.25	0.999958023194
47	23075	1.5	0.999958023194
47	23095	1.75	0.999958023194
47	25348	2	0.999916279813
47	25368	2.25	0.999916279813
47	42021	2.5	0.999895355861
47	53508	2.75	0.999883691867
47	75209	3	0.99987235938
47	82177	3.25	0.999864192577
47	97003	3.5	0.999852395006
47	102457	3.75	0.999846766518
47	116183	4	0.999828514202
47	123023	4.25	0.999825844897
47	131818	4.5	0.999807094345
47	139479	4.75	0.99980367324
47	147696	5	0.999785493915
47	170639	5.25	0.999775606322
47	170659	5.5	0.999775606322
47	193944	5.75	0.999752207727
47	201478	6	0.999741459925
47	201498	6.25	0.999741459925
47	201518	6.5	0.999741459925
47	201538	6.75	0.999741459925
47	209205	7	0.999699478918
47	216340	7.25	0.999696181139
47	220085	7.5	0.999678260359
47	232200	7.75	0.99967286275
47	244528	8	0.99965622423
47	244548	8.25	0.99965622423
47	244568	8.5	0.99965622423
47	258247	8.75	0.999626879182
47	258287	9	0.999613886166
47	258307	9.25	0.999613886166
47	258327	9.5	0.999613886166
47	282388	9.75	0.999584274386
47	282428	10	0.999571470261
47	282448	10.25	0.999571470261
47	282468	10.5	0.999571470261
47	282488	10.75	0.999571470261
47	282528	11	0.999529924367
47	282548	11.25	0.999529924367
47	282568	11.5	0.999529924367
47	282588	11.75	0.999529924367
47	282628	12	0.999488378473
47	282648	12.25	0.999488378473
47	282668	12.5	0.999488378473
47	282688	12.75	0.999488378473
47	282728	13	0.99944683258
47	282748	13.25	0.99944683258
47	282768	13.5	0.99944683258
47	282788	13.75	0.99944683258
47	282828	14	0.999405286686
47	282848	14.25	0.999405286686
47	282868	14.5	0.999405286686
47	282888	14.75	0.999405286686
52	0	0	1
52	71	0.25	1
52	91	0.5	1
52	22996	0.75	0.999969623933
52	23036	1	0.999957893295
52	23056	1.25	0.999957893295
52	23076	1.5	0.999957893295
52	23096	1.75	0.999957893295
52	25349	2	0.999916347401
52	25369	2.25	0.999916347401
52	42022	2.5	0.999896063641
52	53509	2.75	0.999884507268
52	75210	3	0.99987357583
52	82178	3.25	0.999866077228
52	97004	3.5	0.999854493307
52	102458	3.75	0.999854493307
52	116184	4	0.99983104804
52	123024	4.25	0.99982829738
52	131819	4.5	0.999809629839
52	139480	4.75	0.999806247151
52	147697	5	0.999788358786
52	170640	5.25	0.99977858924
52	170660	5.5	0.99977858924
52	193945	5.75	0.999755659756
52	201479	6	0.999745084091
52	201499	6.25	0.999745084091
52	201519	6.5	0.999745084091
52	201539	6.75	0.999745084091
52	209206	7	0.999703525049
52	216341	7.25	0.999700339882
52	220086	7.5	0.999683577973
52	232201	7.75	0.999678278064
52	244529	8	0.999661072539
52	244549	8.25	0.999661072539
52	244569	8.5	0.999661072539
52	258248	8.75	0.999631858637
52	258288	9	0.999618865621
52	258308	9.25	0.999618865621
52	258328	9.5	0.999618865621
52	282389	9.75	0.999589444928
52	282429	10	0.999576640802
52	282449	10.25	0.999576640802
52	282469	10.5	0.999576640802
52	282489	10.75	0.999576640802
52	282529	11	0.999535094908
52	282549	11.25	0.999535094908
52	282569	11.5	0.999535094908
52	282589	11.75	0.999535094908
52	282629	12	0.999493549014
52	282649	12.25	0.999493549014
52	282669	12.5	0.999493549014
52	282689	12.75	0.999493549014
52	282729	13	0.999452003121
52	282749	13.25	0.999452003121
52	282769	13.5	0.999452003121
52	282789	13.75	0.999452003121
52	282829	14	0.999410457227
52	282849	14.25	0.999410457227
52	282869	14.5	0.999410457227
52	282889	14.75	0.999410457227
57	0	0	1
57	72	0.25	1
57	92	0.5	1
57	22997	0.75	0.999969607766
57	23037	1	0.999957877128
57	23057	1.25	0.999957877128
57	23077	1.5	0.999957877128
57	23097	1.75	0.999957877128
57	25350	2	0.999916331235
57	25370	2.25	0.999916331235
57	42023	2.5	0.999895891216
57	53510	2.75	0.999884334843
57	75211	3	0.999873146779
57	82179	3.25	0.999865648177
57	97005	3.5	0.999853725674
57	102459	3.75	0.999848342726
57	116185	4	0.999830121197
57	123025	4.25	0.999827387863
57	131820	4.5	0.999808739758
57	139481	4.75	0.999805331458
57	147698	5	0.999787439414
57	170641	5.25	0.999778072591
57	170661	5.5	0.999778072591
57	193946	5.75	0.999754815858
57	201480	6	0.999744198703
57	201500	6.25	0.999744198703
57	201520	6.5	0.999744198703
57	201540	6.75	0.999744198703
57	209207	7	0.99970250418
57	216342	7.25	0.999699303754
57	220087	7.5	0.999681514692
57	232202	7.75	0.999677106725
57	244530	8	0.999659888802
57	244550	8.25	0.999659888802
57	244570	8.5	0.999659888802
57	258249	8.75	0.999630658552
57	258289	9	0.999617665536
57	258309	9.25	0.999617665536
57	258329	9.5	0.999617665536
57	282390	9.75	0.999588224321
57	282430	10	0.999575420195
57	282450	10.25	0.999575420195
57	282470	10.5	0.999575420195
57	282490	10.75	0.999575420195
57	282530	11	0.999533874301
57	282550	11.25	0.999533874301
57	282570	11.5	0.999533874301
57	282590	11.75	0.999533874301
57	282630	12	0.999492328408
57	282650	12.25	0.999492328408
57	282670	12.5	0.999492328408
57	282690	12.75	0.999492328408
57	282730	13	0.999450782514
57	282750	13.25	0.999450782514
57	282770	13.5	0.999450782514
57	282790	13.75	0.999450782514
57	282830	14	0.99940923662
57	282850	14.25	0.99940923662
57	282870	14.5	0.99940923662
57	282890	14.75	0.99940923662
62	0	0	1
62	73	0.25	1
62	93	0.5	1
62	22998	0.75	0.999969445629
62	23038	1	0.999957714991
62	23058	1.25	0.999957714991
62	23078	1.5	0.999957714991
62	23098	1.75	0.999957714991
62	25351	2	0.99991597161
62	25371	2.25	0.99991597161
62	42024	2.5	0.999895047658
62	53511	2.75	0.999884892145
62	75212	3	0.999872928771
62	82180	3.25	0.999864832627
62	97006	3.5	0.999864832627
62	102460	3.75	0.999848259067
62	116186	4	0.999830569362
62	123026	4.25	0.999828051635
62	131821	4.5	0.999809955656
62	139482	4.75	0.999807225234
62	147699	5	0.999788459268
62	170642	5.25	0.999779460867
62	170662	5.5	0.999779460867
62	193947	5.75	0.999756573532
62	201481	6	0.999745854429
62	201501	6.25	0.999745854429
62	201521	6.5	0.999745854429
62	201541	6.75	0.999745854429
62	209208	7	0.999703886228
62	216343	7.25	0.999700575644
62	220088	7.5	0.999682772023
62	232203	7.75	0.999677622537
62	244531	8	0.999661710124
62	244551	8.25	0.999661710124
62	244571	8.5	0.999661710124
62	258250	8.75	0.999661710124
62	258290	9	0.99962016423
62	258310	9.25	0.99962016423
62	258330	9.5	0.99962016423
62	282391	9.75	0.999590819697
62	282431	10	0.999578015571
62	282451	10.25	0.999578015571
62	282471	10.5	0.999578015571
62	282491	10.75	0.999578015571
62	282531	11	0.999536469677
62	282551	11.25	0.999536469677
62	282571	11.5	0.999536469677
62	282591	11.75	0.999536469677
62	282631	12	0.999494923784
62	282651	12.25	0.999494923784
62	282671	12.5	0.999494923784
62	282691	12.75	0.999494923784
62	282731	13	0.99945337789
62	282751	13.25	0.99945337789
62	282771	13.5	0.99945337789
62	282791	13.75	0.99945337789
62	282831	14	0.999411831996
62	282851	14.25	0.999411831996
62	282871	14.5	0.999411831996
62	282891	14.75	0.999411831996
67	0	0	1
67	74	0.25	1
67	94	0.5	1
67	22999	0.75	0.999969623933
67	23039	1	0.999957893295
67	23059	1.25	0.999957893295
67	23079	1.5	0.999957893295
67	23099	1.75	0.999957893295
67	25352	2	0.999916347401
67	25372	2.25	0.999916347401
67	42025	2.5	0.999896063641
67	53512	2.75	0.999884481202
67	75213	3	0.999873722415
67	82181	3.25	0.999866223813
67	97007	3.5	0.999854292047
67	102461	3.75	0.999854292047
67	116187	4	0.99983084678
67	123027	4.25	0.999828090922
67	131822	4.5	0.999809352722
67	139483	4.75	0.999806037151
67	147700	5	0.999788148786
67	170643	5.25	0.999778376606
67	170663	5.5	0.999778376606
67	193948	5.75	0.999755491261
67	201482	6	0.999744915596
67	201502	6.25	0.999744915596
67	201522	6.5	0.999744915596
67	201542	6.75	0.999744915596
67	209209	7	0.999703356555
67	216344	7.25	0.999700171387
67	220089	7.5	0.999683409478
67	232204	7.75	0.999678109569
67	244532	8	0.99966091022
67	244552	8.25	0.99966091022
67	244572	8.5	0.99966091022
67	258251	8.75	0.999632031176
67	258291	9	0.99961903816
67	258311	9.25	0.99961903816
67	258331	9.5	0.99961903816
67	282392	9.75	0.999589617467
67	282432	10	0.999576813341
67	282452	10.25	0.999576813341
67	282472	10.5	0.999576813341
67	282492	10.75	0.999576813341
67	282532	11	0.999535267447
67	282552	11.25	0.999535267447
67	282572	11.5	0.999535267447
67	282592	11.75	0.999535267447
67	282632	12	0.999493721554
67	282652	12.25	0.999493721554
67	282672	12.5	0.999493721554
67	282692	12.75	0.999493721554
67	282732	13	0.99945217566
67	282752	13.25	0.99945217566
67	282772	13.5	0.99945217566
67	282792	13.75	0.99945217566
67	282832	14	0.999410629766
67	282852	14.25	0.999410629766
67	282872	14.5	0.999410629766
67	282892	14.75	0.999410629766
72	0	0	1
72	75	0.25	1
72	95	0.5	1
72	23000	0.75	0.999969623933
72	23040	1	0.999957893295
72	23060	1.25	0.999957893295
72	23080	1.5	0.999957893295
72	23100	1.75	0.999957893295
72	25353	2	0.99991617464
72	25373	2.25	0.99991617464
72	42026	2.5	0.999895818539
72	53513	2.75	0.999884199339
72	75214	3	0.999873426657
72	82182	3.25	0.999865400445
72	97008	3.5	0.999853679164
72	102462	3.75	0.999853679164
72	116188	4	0.999830189643
72	123028	4.25	0.999827427973
72	131823	4.5	0.999808728985
72	139484	4.75	0.999805323138
72	147701	5	0.999787360323
72	170644	5.25	0.999777514349
72	170664	5.5	0.999777514349
72	193949	5.75	0.999754741367
72	201483	6	0.999744165702
72	201503	6.25	0.999744165702
72	201523	6.5	0.999744165702
72	201543	6.75	0.999744165702
72	209210	7	0.999702606661
72	216345	7.25	0.999699421493
72	220090	7.5	0.999682034626
72	232205	7.75	0.999677281546
72	244533	8	0.999660008995
72	244553	8.25	0.999660008995
72	244573	8.5	0.999660008995
72	258252	8.75	0.999630831785
72	258292	9	0.999617838769
72	258312	9.25	0.999617838769
72	258332	9.5	0.999617838769
72	282393	9.75	0.999588498207
72	282433	10	0.999575694081
72	282453	10.25	0.999575694081
72	282473	10.5	0.999575694081
72	282493	10.75	0.999575694081
72	282533	11	0.999534148187
72	282553	11.25	0.999534148187
72	282573	11.5	0.999534148187
72	282593	11.75	0.999534148187
72	282633	12	0.999492602294
72	282653	12.25	0.999492602294
72	282673	12.5	0.999492602294
72	282693	12.75	0.999492602294
72	282733	13	0.9994510564
72	282753	13.25	0.9994510564
72	282773	13.5	0.9994510564
72	282793	13.75	0.9994510564
72	282833	14	0.999409510506
72	282853	14.25	0.999409510506
72	282873	14.5	0.999409510506
72	282893	14.75	0.999409510506
77	0	0	1
77	76	0.25	1
77	96	0.5	1
77	23001	0.75	0.99996944168
77	23041	1	0.999957711042
77	23061	1.25	0.999957711042
77	23081	1.5	0.999957711042
77	23101	1.75	0.999957711042
77	25354	2	0.99991596766
77	25374	2.25	0.99991596766
77	42027	2.5	0.9998954287
77	53514	2.75	0.999885273187
77	75215	3	0.999873310674
77	82183	3.25	0.999865198637
77	97009	3.5	0.999865198637
77	102463	3.75	0.999848625076
77	116189	4	0.999830935372
77	123029	4.25	0.999828417644
77	131824	4.5	0.999810321665
77	139485	4.75	0.999807591244
77	147702	5	0.999788831453
77	170645	5.25	0.999779833053
77	170665	5.5	0.999779833053
77	193950	5.75	0.999756917017
77	201484	6	0.999746220439
77	201504	6.25	0.999746220439
77	201524	6.5	0.999746220439
77	201544	6.75	0.999746220439
77	209211	7	0.999704329073
77	216346	7.25	0.999700941653
77	220091	7.5	0.999683065921
77	232206	7.75	0.999677608232
77	244534	8	0.999661695818
77	244554	8.25	0.999661695818
77	244574	8.5	0.999661695818
77	258253	8.75	0.999661695818
77	258293	9	0.999620149925
77	258313	9.25	0.999620149925
77	258333	9.5	0.999620149925
77	282394	9.75	0.999590703399
77	282434	10	0.999577899273
77	282454	10.25	0.999577899273
77	282474	10.5	0.999577899273
77	282494	10.75	0.999577899273
77	282534	11	0.99953635338
77	282554	11.25	0.99953635338
77	282574	11.5	0.99953635338
77	282594	11.75	0.99953635338
77	282634	12	0.999494807486
77	282654	12.25	0.999494807486
77	282674	12.5	0.999494807486
77	282694	12.75	0.999494807486
77	282734	13	0.999453261592
77	282754	13.25	0.999453261592
77	282774	13.5	0.999453261592
77	282794	13.75	0.999453261592
77	282834	14	0.999411715698
77	282854	14.25	0.999411715698
77	282874	14.5	0.999411715698
77	282894	14.75	0.999411715698
82	0	0	1
82	77	0.25	1
82	97	0.5	1
82	23002	0.75	0.999969476555
82	23042	1	0.999957745917
82	23062	1.25	0.999957745917
82	23082	1.5	0.999957745917
82	23102	1.75	0.999957745917
82	25355	2	0.999916099007
82	25375	2.25	0.999916099007
82	42028	2.5	0.999895175055
82	53515	2.75	0.999885019542
82	75216	3	0.999873068974
82	82184	3.25	0.999864943585
82	97010	3.5	0.999864943585
82	102464	3.75	0.999848504259
82	116190	4	0.999830814555
82	123030	4.25	0.999828296827
82	131825	4.5	0.999810200848
82	139486	4.75	0.999807470426
82	147703	5	0.999788627625
82	170646	5.25	0.999779629225
82	170666	5.5	0.999779629225
82	193951	5.75	0.999756716277
82	201485	6	0.999746028962
82	201505	6.25	0.999746028962
82	201525	6.5	0.999746028962
82	201545	6.75	0.999746028962
82	209212	7	0.999704330231
82	216347	7.25	0.999701101383
82	220092	7.5	0.999683183691
82	232207	7.75	0.99967776047
82	244535	8	0.999661848056
82	244555	8.25	0.999661848056
82	244575	8.5	0.999661848056
82	258254	8.75	0.999661848056
82	258294	9	0.999620302162
82	258314	9.25	0.999620302162
82	258334	9.5	0.999620302162
82	282395	9.75	0.999590980153
82	282435	10	0.999578176027
82	282455	10.25	0.999578176027
82	282475	10.5	0.999578176027
82	282495	10.75	0.999578176027
82	282535	11	0.999536630133
82	282555	11.25	0.999536630133
82	282575	11.5	0.999536630133
82	282595	11.75	0.999536630133
82	282635	12	0.99949508424
82	282655	12.25	0.99949508424
82	282675	12.5	0.99949508424
82	282695	12.75	0.99949508424
82	282735	13	0.999453538346
82	282755	13.25	0.999453538346