file 35251 1253626582                                           
version 2
run Nine-0-20090826-15:55:56-17382
attr configname Nine
attr datetime 20090826-15:55:56
attr experiment Nine
attr inifile omnetpp.ini
attr iterationvars ""
attr iterationvars2 $repetition=0
attr measurement ""
attr network sim
attr processid 17382
attr repetition 0
attr replication #0
attr resultdir results
attr runnumber 0
attr seedset 0
vector 2  sim.host[0].batteryStats  capacity(relative)  ETV
2	1580 1634 0 274934 0 14.75 60 0.999408773755 1 59.981842375431 59.963692189308
vector 7  sim.host[1].batteryStats  capacity(relative)  ETV
7	3214 1629 0 274935 0 14.75 60 0.999412379525 1 59.982018122066 59.964043548382
vector 12  sim.host[2].batteryStats  capacity(relative)  ETV
12	4843 1681 0 274936 0 14.75 60 0.99941196767 1 59.981977503373 59.963962341248
vector 17  sim.host[3].batteryStats  capacity(relative)  ETV
17	6524 1691 0 274937 0 14.75 60 0.999409499239 1 59.981881224083 59.963769860651
vector 22  sim.host[4].batteryStats  capacity(relative)  ETV
22	8215 1692 0 274938 0 14.75 60 0.999409350004 1 59.981877461782 59.963762339825
vector 27  sim.host[5].batteryStats  capacity(relative)  ETV
27	9907 1690 0 274939 0 14.75 60 0.99940946503 1 59.981885418949 59.963778249414
vector 32  sim.host[6].batteryStats  capacity(relative)  ETV
32	11597 1685 0 274940 0 14.75 60 0.99941365543 1 59.982059510131 59.964126298406
vector 37  sim.host[7].batteryStats  capacity(relative)  ETV
37	13282 1689 0 274941 0 14.75 60 0.999408708253 1 59.981836363389 59.963680168472
vector 42  sim.host[8].batteryStats  capacity(relative)  ETV
42	14971 1687 0 274942 0 14.75 60 0.999412846775 1 59.982041338751 59.96408996489
vector 47  sim.host[9].batteryStats  capacity(relative)  ETV
47	16658 1691 0 274943 0 14.75 60 0.999405578806 1 59.981723885723 59.963455308485
vector 52  sim.host[10].batteryStats  capacity(relative)  ETV
52	18349 1688 0 274944 0 14.75 60 0.999410500603 1 59.981933519417 59.963874415318
vector 57  sim.host[11].batteryStats  capacity(relative)  ETV
57	20037 1694 0 274945 0 14.75 60 0.999409562661 1 59.981887446045 59.96378230122
vector 62  sim.host[12].batteryStats  capacity(relative)  ETV
62	21731 1694 0 274946 0 14.75 60 0.999412373921 1 59.982014267339 59.964035840674
vector 67  sim.host[13].batteryStats  capacity(relative)  ETV
67	23425 1694 0 274947 0 14.75 60 0.999410723024 1 59.981935791046 59.96387895484
vector 72  sim.host[14].batteryStats  capacity(relative)  ETV
72	25119 1692 0 274948 0 14.75 60 0.999409751787 1 59.981887817382 59.9637830406
vector 77  sim.host[15].batteryStats  capacity(relative)  ETV
77	26811 1686 0 274949 0 14.75 60 0.999412352122 1 59.982021415463 59.964050134198
vector 82  sim.host[16].batteryStats  capacity(relative)  ETV
82	28497 1692 0 274950 0 14.75 60 0.999412451521 1 59.982020923135 59.964049148196
vector 87  sim.host[17].batteryStats  capacity(relative)  ETV
87	30189 1685 0 274951 0 14.75 60 0.999405766556 1 59.981716074121 59.963439685939
vector 92  sim.host[18].batteryStats  capacity(relative)  ETV
92	31874 1690 0 274952 0 14.75 60 0.999410573441 1 59.981929630626 59.963866638587
vector 97  sim.host[19].batteryStats  capacity(relative)  ETV
97	33564 1687 0 274953 0 14.75 60 0.999410623119 1 59.981938301518 59.963883975986
