version 2
run Seven-0-20090820-14:43:06-12575
attr configname Seven
attr datetime 20090820-14:43:06
attr experiment Seven
attr inifile omnetpp.ini
attr iterationvars ""
attr iterationvars2 $repetition=0
attr measurement ""
attr network sim
attr processid 12575
attr repetition 0
attr replication #0
attr resultdir results
attr runnumber 0
attr seedset 0

vector 2  sim.host[0].batteryStats  capacity(relative)  ETV
vector 7  sim.host[1].batteryStats  capacity(relative)  ETV
vector 12  sim.host[2].batteryStats  capacity(relative)  ETV
2	0	1
2	0	1
2	0.1	0.986111111111
2	0.2	0.972222222222
2	0.3	0.958333333333
2	0.4	0.944444444444
2	0.5	0.930555555556
2	0.6	0.916666666667
2	0.7	0.902777777778
2	0.8	0.888888888889
2	0.9	0.875
2	1	0.861111111111
2	1.00624227393	0.860244128621
2	1.00709827393	0.860243653066
2	1.0140771322	0.859274367194
2	1.0143491322	0.859274291638
2	1.0143591322	0.85927290275
2	1.0146071322	0.859272764972
2	1.0146171322	0.859271376083
2	1.0154731322	0.859271138305
2	1.0154831322	0.859269749416
2	1.0157311322	0.859269611638
2	1.01624065296	0.859198844866
2	1.01651265296	0.859198769311
2	1.01652265296	0.859197380422
2	1.01677065296	0.859197242644
2	1.01678065296	0.859195853755
2	1.01763665296	0.859195615977
2	1.01764665296	0.859194227088
2	1.01789465296	0.859194089311
2	1.1	0.847790568889
2	1.2	0.83390168
2	1.3	0.820012791111
2	1.4	0.806123902222
2	1.40531430216	0.8053858047
2	1.40617030216	0.805385566923
2	1.40774839716	0.805166387061
2	1.40802039716	0.80516623595
2	1.40803039716	0.805164847061
2	1.40827839716	0.805164778172
2	1.40828839716	0.805163389283
2	1.40914439716	0.805162913728
2	1.40915439716	0.805161524839
2	1.40940239716	0.80516145595
2	1.40997239716	0.805082289283
2	1.41024439716	0.805082213728
2	1.41025439716	0.805080824839
2	1.41050239716	0.80508075595
2	1.41051239716	0.805079367061
2	1.41136839716	0.805079129283
2	1.41137839716	0.805077740394
2	1.41162639716	0.805077671505
2	1.5	0.79280356
2	1.6	0.778914671111
2	1.7	0.765025782222
2	1.8	0.751136893333
2	1.9	0.737248004444
2	2	0.723359115556
2	2.1	0.709470226667
2	2.2	0.695581337778
2	2.3	0.681692448889
2	2.4	0.66780356
2	2.5	0.653914671111
2	2.6	0.640025782222
2	2.7	0.626136893333
2	2.8	0.612248004444
2	2.9	0.598359115556
2	3	0.584470226667
2	3.1	0.570581337778
2	3.2	0.556692448889
2	3.3	0.54280356
2	3.4	0.528914671111
2	3.5	0.515025782222
2	3.6	0.501136893333
2	3.7	0.487248004444
2	3.8	0.473359115556
2	3.9	0.459470226667
2	4	0.445581337778
2	4.1	0.431692448889
2	4.2	0.41780356
2	4.3	0.403914671111
2	4.4	0.390025782222
2	4.5	0.376136893333
2	4.6	0.362248004444
2	4.7	0.348359115556
2	4.8	0.334470226667
2	4.9	0.320581337778
2	5	0.306692448889
2	5.1	0.29280356
2	5.2	0.278914671111
2	5.3	0.265025782222
2	5.4	0.251136893333
2	5.5	0.237248004444
2	5.6	0.223359115556
2	5.7	0.209470226667
2	5.8	0.195581337778
2	5.9	0.181692448889
2	6	0.16780356
2	6.1	0.153914671111
2	6.2	0.140025782222
2	6.3	0.126136893333
2	6.4	0.112248004444
2	6.5	0.0983591155556
2	6.6	0.0844702266667
2	6.7	0.0705813377778
2	6.8	0.0566924488889
2	6.9	0.04280356
2	7	0.0289146711111
2	7.1	0.0150257822222
2	7.2	0.00113689333333
2	7.3	0
7	0	1
7	0	1
7	0.1	0.986111111111
7	0.2	0.972222222222
7	0.3	0.958333333333
7	0.4	0.944444444444
7	0.5	0.930555555556
7	0.6	0.916666666667
7	0.7	0.902777777778
7	0.8	0.888888888889
7	0.9	0.875
7	1	0.861111111111
7	1.00624227393	0.860244128621
7	1.00709827393	0.860243890844
7	1.0140771322	0.859274604972
7	1.0143491322	0.859274529416
7	1.0143591322	0.859273140527
7	1.0146071322	0.859273071638
7	1.0146171322	0.85927168275
7	1.0154731322	0.859271444972
7	1.0154831322	0.859270056083
7	1.0157311322	0.859269987194
7	1.01624065296	0.859199220422
7	1.01651265296	0.859199069311
7	1.01652265296	0.859197680422
7	1.01677065296	0.859197611533
7	1.01678065296	0.859196222644
7	1.01763665296	0.859195747088
7	1.01764665296	0.859194358199
7	1.01789465296	0.859194289311
7	1.1	0.847790768889
7	1.2	0.83390188
7	1.3	0.820012991111
7	1.4	0.806124102222
7	1.40531430216	0.8053860047
7	1.40617030216	0.805385766923
7	1.40774839716	0.805166587061
7	1.40802039716	0.805166511505
7	1.40803039716	0.805165122616
7	1.40827839716	0.805165053728
7	1.40828839716	0.805163664839
7	1.40914439716	0.805163427061
7	1.40915439716	0.805162038172
7	1.40940239716	0.805161969283
7	1.40997239716	0.805082802616
7	1.41024439716	0.805082651505
7	1.41025439716	0.805081262616
7	1.41050239716	0.805081193728
7	1.41051239716	0.805079804839
7	1.41136839716	0.805079329283
7	1.41137839716	0.805077940394
7	1.41162639716	0.805077871505
7	1.5	0.79280376
7	1.6	0.778914871111
7	1.7	0.765025982222
7	1.8	0.751137093333
7	1.9	0.737248204444
7	2	0.723359315556
7	2.1	0.709470426667
7	2.2	0.695581537778
7	2.3	0.681692648889
7	2.4	0.66780376
7	2.5	0.653914871111
7	2.6	0.640025982222
7	2.7	0.626137093333
7	2.8	0.612248204444
7	2.9	0.598359315556
7	3	0.584470426667
7	3.1	0.570581537778
7	3.2	0.556692648889
7	3.3	0.54280376
7	3.4	0.528914871111
7	3.5	0.515025982222
7	3.6	0.501137093333
7	3.7	0.487248204444
7	3.8	0.473359315556
7	3.9	0.459470426667
7	4	0.445581537778
7	4.1	0.431692648889
7	4.2	0.41780376
7	4.3	0.403914871111
7	4.4	0.390025982222
7	4.5	0.376137093333
7	4.6	0.362248204444
7	4.7	0.348359315556
7	4.8	0.334470426667
7	4.9	0.320581537778
7	5	0.306692648889
7	5.1	0.29280376
7	5.2	0.278914871111
7	5.3	0.265025982222
7	5.4	0.251137093333
7	5.5	0.237248204444
7	5.6	0.223359315556
7	5.7	0.209470426667
7	5.8	0.195581537778
7	5.9	0.181692648889
7	6	0.16780376
7	6.1	0.153914871111
7	6.2	0.140025982222
7	6.3	0.126137093333
7	6.4	0.112248204444
7	6.5	0.0983593155556
7	6.6	0.0844704266667
7	6.7	0.0705815377778
7	6.8	0.0566926488889
7	6.9	0.04280376
7	7	0.0289148711111
7	7.1	0.0150259822222
7	7.2	0.00113709333333
7	7.3	0
12	0	0.5
12	0	0.5
12	0.1	0.486111111111
12	0.2	0.472222222222
12	0.3	0.458333333333
12	0.4	0.444444444444
12	0.5	0.430555555556
12	0.6	0.416666666667
12	0.7	0.402777777778
12	0.8	0.388888888889
12	0.9	0.375
12	1	0.361111111111
12	1.00624227393	0.360244128621
12	1.00709827393	0.360243890844
12	1.0140771322	0.359274604972
12	1.0143491322	0.359274453861
12	1.0143591322	0.359273064972
12	1.0146071322	0.359272996083
12	1.0146171322	0.359271607194
12	1.0154731322	0.359271131638
12	1.0154831322	0.35926974275
12	1.0157311322	0.359269673861
12	1.01624065296	0.359198907088
12	1.01651265296	0.359198831533
12	1.01652265296	0.359197442644
12	1.01677065296	0.359197373755
12	1.01678065296	0.359195984866
12	1.01763665296	0.359195747088
12	1.01764665296	0.359194358199
12	1.01789465296	0.359194289311
12	1.1	0.347790768889
12	1.2	0.33390188
12	1.3	0.320012991111
12	1.4	0.306124102222
12	1.40531430216	0.3053860047
12	1.40617030216	0.305385529145
12	1.40774839716	0.305166349283
12	1.40802039716	0.305166273728
12	1.40803039716	0.305164884839
12	1.40827839716	0.305164747061
12	1.40828839716	0.305163358172
12	1.40914439716	0.305163120394
12	1.40915439716	0.305161731505
12	1.40940239716	0.305161593728
12	1.40997239716	0.305082427061
12	1.41024439716	0.305082351505
12	1.41025439716	0.305080962616
12	1.41050239716	0.305080824839
12	1.41051239716	0.30507943595
12	1.41136839716	0.305079198172
12	1.41137839716	0.305077809283
12	1.41162639716	0.305077671505
12	1.5	0.29280356
12	1.6	0.278914671111
12	1.7	0.265025782222
12	1.8	0.251136893333
12	1.9	0.237248004444
12	2	0.223359115556
12	2.1	0.209470226667
12	2.2	0.195581337778
12	2.3	0.181692448889
12	2.4	0.16780356
12	2.5	0.153914671111
12	2.6	0.140025782222
12	2.7	0.126136893333
12	2.8	0.112248004444
12	2.9	0.0983591155556
12	3	0.0844702266667
12	3.1	0.0705813377778
12	3.2	0.0566924488889
12	3.3	0.04280356
12	3.4	0.0289146711111
12	3.5	0.0150257822222
12	3.6	0.00113689333333
12	3.7	0