version 2
run Ten-0-20091217-15:10:31-32399
attr configname Ten
attr datetime 20091217-15:10:31
attr experiment Ten
attr inifile omnetpp.ini
attr iterationvars ""
attr iterationvars2 $repetition=0
attr measurement ""
attr network sim
attr processid 32399
attr repetition 0
attr replication #0
attr resultdir results
attr runnumber 0
attr seedset 0

vector 2  sim.host[0].batteryStats  capacity(relative)  ETV
vector 7  sim.host[1].batteryStats  capacity(relative)  ETV
vector 12  sim.host[2].batteryStats  capacity(relative)  ETV
vector 17  sim.host[3].batteryStats  capacity(relative)  ETV
vector 22  sim.host[4].batteryStats  capacity(relative)  ETV
vector 27  sim.host[5].batteryStats  capacity(relative)  ETV
vector 32  sim.host[6].batteryStats  capacity(relative)  ETV
vector 37  sim.host[7].batteryStats  capacity(relative)  ETV
vector 42  sim.host[8].batteryStats  capacity(relative)  ETV
vector 47  sim.host[9].batteryStats  capacity(relative)  ETV
vector 52  sim.host[10].batteryStats  capacity(relative)  ETV
vector 57  sim.host[11].batteryStats  capacity(relative)  ETV
vector 62  sim.host[12].batteryStats  capacity(relative)  ETV
vector 67  sim.host[13].batteryStats  capacity(relative)  ETV
vector 72  sim.host[14].batteryStats  capacity(relative)  ETV
vector 77  sim.host[15].batteryStats  capacity(relative)  ETV
vector 82  sim.host[16].batteryStats  capacity(relative)  ETV
vector 87  sim.host[17].batteryStats  capacity(relative)  ETV
vector 92  sim.host[18].batteryStats  capacity(relative)  ETV
vector 97  sim.host[19].batteryStats  capacity(relative)  ETV
2	0	0	1
2	61	0.25	1
2	81	0.5	1
2	29231	0.75	0.999967869525
2	65369	1	0.999956203864
2	100715	1.25	0.999944505202
2	119332	1.5	0.999937458007
2	119352	1.75	0.999937458007
2	131995	2	0.999912013552
2	132070	2.25	0.99991195108
2	151458	2.5	0.999890340452
2	188668	2.75	0.999878627257
2	239224	3	0.999867151753
2	290130	3.25	0.999856102759
2	343614	3.5	0.999844807052
2	395579	3.75	0.999833310582
2	438039	4	0.999821834475
2	467934	4.25	0.999810347165
2	498589	4.5	0.999798975267
2	529261	4.75	0.999787423033
2	565162	5	0.999775802401
2	613795	5.25	0.999763957116
2	649206	5.5	0.999752474844
2	684606	5.75	0.999741023658
2	730947	6	0.999729514878
2	775265	6.25	0.99971786186
2	814259	6.5	0.999706268016
2	829107	6.75	0.999699416532
2	837092	7	0.999684649043
2	864018	7.25	0.999673042257
2	891509	7.5	0.999661309092
2	919853	7.75	0.999649633938
2	962206	8	0.999637841632
2	1001376	8.25	0.999626758337
2	1026119	8.5	0.999616635967
2	1047268	8.75	0.999605061847
2	1074061	9	0.99959415903
2	1098208	9.25	0.999583231935
2	1103224	9.5	0.99957963394
2	1139766	9.75	0.999561145147
2	1177723	10	0.999549594199
2	1209219	10.25	0.999537985476
2	1235539	10.5	0.9995264059
2	1237439	10.75	0.99952480212
2	1237479	11	0.999505534054
2	1237499	11.25	0.999505534054
2	1237519	11.5	0.999505534054
2	1237539	11.75	0.999505534054
2	1237579	12	0.99946398816
2	1237599	12.25	0.99946398816
2	1237619	12.5	0.99946398816
2	1237639	12.75	0.99946398816
2	1237679	13	0.999422442266
2	1237699	13.25	0.999422442266
2	1237719	13.5	0.999422442266
2	1237739	13.75	0.999422442266
2	1237779	14	0.999380896373
2	1237799	14.25	0.999380896373
2	1237819	14.5	0.999380896373
2	1237839	14.75	0.999380896373
7	0	0	1
7	62	0.25	1
7	82	0.5	1
7	29232	0.75	0.999967830833
7	65370	1	0.999956192841
7	100716	1.25	0.999944737577
7	119333	1.5	0.999938186952
7	119353	1.75	0.999938186952
7	131996	2	0.999912473668
7	132071	2.25	0.999912414284
7	151459	2.5	0.999890765238
7	188669	2.75	0.999879210129
7	239225	3	0.999867567028
7	290131	3.25	0.999855865449
7	343615	3.5	0.999844322041
7	395580	3.75	0.999832842037
7	438040	4	0.999821596999
7	467935	4.25	0.999811073242
7	498590	4.5	0.999800333777
7	529262	4.75	0.999789785619
7	565163	5	0.999779070625
7	613796	5.25	0.999768171128
7	649207	5.5	0.999757485599
7	684607	5.75	0.999746723788
7	730948	6	0.999735275606
7	775266	6.25	0.999723973874
7	814260	6.5	0.999712829728
7	829108	6.75	0.999708133143
7	837093	7	0.999691264672
7	864019	7.25	0.999679520656
7	891510	7.5	0.999667773272
7	919854	7.75	0.999656149461
7	962207	8	0.9996445262
7	1001377	8.25	0.999637672045
7	1026120	8.5	0.999623977585
7	1047269	8.75	0.999623977585
7	1074062	9	0.999602078634
7	1098209	9.25	0.999602078634
7	1103225	9.5	0.999602078634
7	1139767	9.75	0.999569897348
7	1177724	10	0.999558376785
7	1209220	10.25	0.999547295459
7	1235540	10.5	0.999536251815
7	1237440	10.75	0.999534765285
7	1237480	11	0.999515497219
7	1237500	11.25	0.999515497219
7	1237520	11.5	0.999515497219
7	1237540	11.75	0.999515497219
7	1237580	12	0.999473951325
7	1237600	12.25	0.999473951325
7	1237620	12.5	0.999473951325
7	1237640	12.75	0.999473951325
7	1237680	13	0.999432405432
7	1237700	13.25	0.999432405432
7	1237720	13.5	0.999432405432
7	1237740	13.75	0.999432405432
7	1237780	14	0.999390859538
7	1237800	14.25	0.999390859538
7	1237820	14.5	0.999390859538
7	1237840	14.75	0.999390859538
12	0	0	1
12	63	0.25	1
12	83	0.5	1
12	29233	0.75	0.999967712947
12	65371	1	0.999955889953
12	100717	1.25	0.999944130891
12	119334	1.5	0.999937627039
12	119354	1.75	0.999937627039
12	131997	2	0.999912318767
12	132072	2.25	0.999912256296
12	151460	2.5	0.999890594444
12	188670	2.75	0.999878998691
12	239226	3	0.999867351778
12	290132	3.25	0.999855872954
12	343616	3.5	0.999844502822
12	395581	3.75	0.999833334951
12	438041	4	0.999822157484
12	467936	4.25	0.999811633727
12	498591	4.5	0.999800894263
12	529263	4.75	0.999790346104
12	565164	5	0.999779431485
12	613797	5.25	0.999768105487
12	649208	5.5	0.999757340127
12	684608	5.75	0.999746560396
12	730949	6	0.999735112215
12	775267	6.25	0.999723810483
12	814261	6.5	0.999712666337
12	829109	6.75	0.999707969752
12	837094	7	0.999691101281
12	864020	7.25	0.999679335195
12	891511	7.5	0.999667572371
12	919855	7.75	0.999655932547
12	962208	8	0.999644287792
12	1001378	8.25	0.999637433637
12	1026121	8.5	0.999623739177
12	1047270	8.75	0.999612374794
12	1074063	9	0.99960152273
12	1098210	9.25	0.999597878973
12	1103226	9.5	0.999597878973
12	1139768	9.75	0.999569214703
12	1177725	10	0.999557662806
12	1209221	10.25	0.999546512183
12	1235541	10.5	0.999535230588
12	1237441	10.75	0.999533642066
12	1237481	11	0.999514374
12	1237501	11.25	0.999514374
12	1237521	11.5	0.999514374
12	1237541	11.75	0.999514374
12	1237581	12	0.999472828106
12	1237601	12.25	0.999472828106
12	1237621	12.5	0.999472828106
12	1237641	12.75	0.999472828106
12	1237681	13	0.999431282212
12	1237701	13.25	0.999431282212
12	1237721	13.5	0.999431282212
12	1237741	13.75	0.999431282212
12	1237781	14	0.999389736319
12	1237801	14.25	0.999389736319
12	1237821	14.5	0.999389736319
12	1237841	14.75	0.999389736319
17	0	0	1
17	64	0.25	1
17	84	0.5	1
17	29234	0.75	0.999968017668
17	65372	1	0.999956647173
17	100718	1.25	0.999945341884
17	119335	1.5	0.999938366334
17	119355	1.75	0.999938366334
17	131998	2	0.999913402991
17	132073	2.25	0.999913402991
17	151461	2.5	0.999892319155
17	188671	2.75	0.999881122075
17	239227	3	0.999869444311
17	290133	3.25	0.999857789501
17	343617	3.5	0.999846142281
17	395582	3.75	0.999834496732
17	438042	4	0.999822857
17	467937	4.25	0.999811174456
17	498592	4.5	0.999799470927
17	529264	4.75	0.999787836879
17	565165	5	0.999776114526
17	613798	5.25	0.999764513572
17	649209	5.5	0.999752769373
17	684609	5.75	0.999741121208
17	730950	6	0.999729789063
17	775268	6.25	0.999718613685
17	814262	6.5	0.99970737014
17	829110	6.75	0.999700459709
17	837095	7	0.999685847464
17	864021	7.25	0.999674946194
17	891512	7.5	0.999663945782
17	919856	7.75	0.999653241763
17	962209	8	0.99964175854
17	1001379	8.25	0.999630014588
17	1026122	8.5	0.999619566159
17	1047271	8.75	0.99960718921
17	1074064	9	0.999595478253
17	1098211	9.25	0.999584022478
17	1103227	9.5	0.999580726504
17	1139769	9.75	0.999562047988
17	1177726	10	0.999550373328
17	1209222	10.25	0.999539137513
17	1235542	10.5	0.999528496352
17	1237442	10.75	0.99952695485
17	1237482	11	0.999507686784
17	1237502	11.25	0.999507686784
17	1237522	11.5	0.999507686784
17	1237542	11.75	0.999507686784
17	1237582	12	0.99946614089
17	1237602	12.25	0.99946614089
17	1237622	12.5	0.99946614089
17	1237642	12.75	0.99946614089
17	1237682	13	0.999424594997
17	1237702	13.25	0.999424594997
17	1237722	13.5	0.999424594997
17	1237742	13.75	0.999424594997
17	1237782	14	0.999383049103
17	1237802	14.25	0.999383049103
17	1237822	14.5	0.999383049103
17	1237842	14.75	0.999383049103
22	0	0	1
22	65	0.25	1
22	85	0.5	1
22	29235	0.75	0.999968017668
22	65373	1	0.999956647173
22	100719	1.25	0.999945341884
22	119336	1.5	0.999938366334
22	119356	1.75	0.999938366334
22	131999	2	0.999913384054
22	132074	2.25	0.999913384054
22	151462	2.5	0.999892300218
22	188672	2.75	0.999881097939
22	239228	3	0.999869410357
22	290134	3.25	0.999857720039
22	343618	3.5	0.999845992584
22	395583	3.75	0.999834346094
22	438043	4	0.999822706682
22	467938	4.25	0.999811050292
22	498593	4.5	0.99979926684
22	529265	4.75	0.999787950666
22	565166	5	0.999776775921
22	613799	5.25	0.99976538111
22	649210	5.5	0.999753900747
22	684610	5.75	0.999742391492
22	730951	6	0.999730904951
22	775269	6.25	0.999719377868
22	814263	6.5	0.999707623454
22	829111	6.75	0.999700513125
22	837096	7	0.999685900881
22	864022	7.25	0.99967499961
22	891513	7.5	0.999663999198
22	919857	7.75	0.999653295179
22	962210	8	0.999641814067
22	1001380	8.25	0.999630181871
22	1026123	8.5	0.999619605384
22	1047272	8.75	0.999607210775
22	1074065	9	0.999595402983
22	1098212	9.25	0.999583994727
22	1103228	9.5	0.999580308858
22	1139770	9.75	0.999561620216
22	1177727	10	0.999550009131
22	1209223	10.25	0.999538840433
22	1235543	10.5	0.999528036792
22	1237443	10.75	0.999526466591
22	1237483	11	0.999507198525
22	1237503	11.25	0.999507198525
22	1237523	11.5	0.999507198525
22	1237543	11.75	0.999507198525
22	1237583	12	0.999465652632
22	1237603	12.25	0.999465652632
22	1237623	12.5	0.999465652632
22	1237643	12.75	0.999465652632
22	1237683	13	0.999424106738
22	1237703	13.25	0.999424106738
22	1237723	13.5	0.999424106738
22	1237743	13.75	0.999424106738
22	1237783	14	0.999382560844
22	1237803	14.25	0.999382560844
22	1237823	14.5	0.999382560844
22	1237843	14.75	0.999382560844
27	0	0	1
27	66	0.25	1
27	86	0.5	1
27	29236	0.75	0.999968067529
27	65374	1	0.999956829859
27	100720	1.25	0.99994563183
27	119337	1.5	0.999939036912
27	119357	1.75	0.999939036912
27	132000	2	0.999914054632
27	132075	2.25	0.999914054632
27	151463	2.5	0.999892970796
27	188673	2.75	0.999881749081
27	239229	3	0.99986999479
27	290135	3.25	0.999858390137
27	343619	3.5	0.999846665771
27	395584	3.75	0.999834994485
27	438044	4	0.999823681709
27	467939	4.25	0.999812658437
27	498594	4.5	0.999801546746
27	529266	4.75	0.99979025028
27	565167	5	0.999778585645
27	613800	5.25	0.999767038164
27	649211	5.5	0.999755414303
27	684611	5.75	0.999743691252
27	730952	6	0.999732018395
27	775270	6.25	0.999720497076
27	814264	6.5	0.999708665827
27	829112	6.75	0.999701555498
27	837097	7	0.999686943253
27	864023	7.25	0.999676041983
27	891514	7.5	0.999665041571
27	919858	7.75	0.999654337552
27	962211	8	0.999642842676
27	1001381	8.25	0.999631213278
27	1026124	8.5	0.999620637245
27	1047273	8.75	0.999608318655
27	1074066	9	0.999596653654
27	1098213	9.25	0.999584987809
27	1103229	9.5	0.99958130194
27	1139771	9.75	0.999562834946
27	1177728	10	0.999551198703
27	1209224	10.25	0.999539983233
27	1235544	10.5	0.999528953992
27	1237444	10.75	0.999527383791
27	1237484	11	0.999508115725
27	1237504	11.25	0.999508115725
27	1237524	11.5	0.999508115725
27	1237544	11.75	0.999508115725
27	1237584	12	0.999466569832
27	1237604	12.25	0.999466569832
27	1237624	12.5	0.999466569832
27	1237644	12.75	0.999466569832
27	1237684	13	0.999425023938
27	1237704	13.25	0.999425023938
27	1237724	13.5	0.999425023938
27	1237744	13.75	0.999425023938
27	1237784	14	0.999383478044
27	1237804	14.25	0.999383478044
27	1237824	14.5	0.999383478044
27	1237844	14.75	0.999383478044
32	0	0	1
32	67	0.25	1
32	87	0.5	1
32	29237	0.75	0.999967986341
32	65375	1	0.999956543524
32	100721	1.25	0.999945099658
32	119338	1.5	0.999938536228
32	119358	1.75	0.999938536228
32	132001	2	0.999913406197
32	132076	2.25	0.999913343726
32	151464	2.5	0.999891840879
32	188674	2.75	0.999880366964
32	239230	3	0.999869048725
32	290136	3.25	0.999858157235
32	343620	3.5	0.999846933032
32	395585	3.75	0.999836574359
32	438045	4	0.999825270097
32	467940	4.25	0.99981474634
32	498595	4.5	0.999804050485
32	529267	4.75	0.999793502326
32	565168	5	0.999782501609
32	613801	5.25	0.999770791829
32	649212	5.5	0.999760119406
32	684612	5.75	0.999749560466
32	730953	6	0.999738906071
32	775271	6.25	0.999728331142
32	814265	6.5	0.999717281551
32	829113	6.75	0.999712689612
32	837098	7	0.999696070836
32	864024	7.25	0.999685193825
32	891515	7.5	0.999674113767
32	919859	7.75	0.999662523747
32	962212	8	0.999650928787
32	1001382	8.25	0.99964431699
32	1026125	8.5	0.99963062253
32	1047274	8.75	0.999619258147
32	1074067	9	0.999608406083
32	1098214	9.25	0.999604762325
32	1103230	9.5	0.999604762325
32	1139772	9.75	0.999576481507
32	1177729	10	0.999565215345
32	1209225	10.25	0.999554295757
32	1235545	10.5	0.999543206346
32	1237445	10.75	0.999541617824
32	1237485	11	0.999522349758
32	1237505	11.25	0.999522349758
32	1237525	11.5	0.999522349758
32	1237545	11.75	0.999522349758
32	1237585	12	0.999480803865
32	1237605	12.25	0.999480803865
32	1237625	12.5	0.999480803865
32	1237645	12.75	0.999480803865
32	1237685	13	0.999439257971
32	1237705	13.25	0.999439257971
32	1237725	13.5	0.999439257971
32	1237745	13.75	0.999439257971
32	1237785	14	0.999397712077
32	1237805	14.25	0.999397712077
32	1237825	14.5	0.999397712077
32	1237845	14.75	0.999397712077
37	0	0	1
37	68	0.25	1
37	88	0.5	1
37	29238	0.75	0.999967856265
37	65376	1	0.999956158816
37	100722	1.25	0.999944517553
37	119339	1.5	0.999937470359
37	119359	1.75	0.999937470359
37	132002	2	0.999912025903
37	132077	2.25	0.999911963432
37	151465	2.5	0.999890366017
37	188675	2.75	0.999878750525
37	239231	3	0.999867063654
37	290137	3.25	0.99985552679
37	343621	3.5	0.999843898812
37	395586	3.75	0.999832206531
37	438046	4	0.999820734465
37	467941	4.25	0.999809247155
37	498596	4.5	0.999797802056
37	529268	4.75	0.999786249822
37	565169	5	0.999774629189
37	613802	5.25	0.999762783905
37	649213	5.5	0.999751307808
37	684613	5.75	0.999739982955
37	730954	6	0.999728885918
37	775272	6.25	0.9997175658
37	814266	6.5	0.999706261404
37	829114	6.75	0.999699567585
37	837099	7	0.999684790378
37	864025	7.25	0.999673156279
37	891516	7.5	0.999661523287
37	919860	7.75	0.999649732881
37	962213	8	0.999638023632
37	1001383	8.25	0.999626825084
37	1026126	8.5	0.999616702715
37	1047275	8.75	0.999605128595
37	1074068	9	0.999594225777
37	1098215	9.25	0.999583298683
37	1103231	9.5	0.999579700688
37	1139773	9.75	0.999561150954
37	1177730	10	0.999549480804
37	1209226	10.25	0.999538080062
37	1235546	10.5	0.999526500485
37	1237446	10.75	0.999524896705
37	1237486	11	0.999505628639
37	1237506	11.25	0.999505628639
37	1237526	11.5	0.999505628639
37	1237546	11.75	0.999505628639
37	1237586	12	0.999464082746
37	1237606	12.25	0.999464082746
37	1237626	12.5	0.999464082746
37	1237646	12.75	0.999464082746
37	1237686	13	0.999422536852
37	1237706	13.25	0.999422536852
37	1237726	13.5	0.999422536852
37	1237746	13.75	0.999422536852
37	1237786	14	0.999380990958
37	1237806	14.25	0.999380990958
37	1237826	14.5	0.999380990958
37	1237846	14.75	0.999380990958
42	0	0	1
42	69	0.25	1
42	89	0.5	1
42	29239	0.75	0.999967783929
42	65377	1	0.999956064521
42	100723	1.25	0.99994454509
42	119340	1.5	0.999937958481
42	119360	1.75	0.999937958481
42	132003	2	0.999912982261
42	132078	2.25	0.999912982261
42	151466	2.5	0.999891279621
42	188676	2.75	0.999879727992
42	239232	3	0.999868154224
42	290138	3.25	0.999856729975
42	343622	3.5	0.999845361272
42	395587	3.75	0.999834404665
42	438047	4	0.999823520854
42	467942	4.25	0.999812997097
42	498597	4.5	0.999802257633
42	529269	4.75	0.999791709474
42	565170	5	0.999780936625
42	613803	5.25	0.999769987337
42	649214	5.5	0.999759338562
42	684614	5.75	0.999748586632
42	730955	6	0.999737263305
42	775273	6.25	0.999726079064
42	814267	6.5	0.999714972813
42	829115	6.75	0.999710276227
42	837100	7	0.999693446832
42	864026	7.25	0.999681812076
42	891517	7.5	0.999670169299
42	919861	7.75	0.999658576791
42	962214	8	0.999646962248
42	1001384	8.25	0.999640126249
42	1026127	8.5	0.99962643179
42	1047276	8.75	0.99962643179
42	1074069	9	0.999604532838
42	1098216	9.25	0.999604532838
42	1103232	9.5	0.999604532838
42	1139774	9.75	0.999572319064
42	1177731	10	0.999560782479
42	1209227	10.25	0.999549666431
42	1235547	10.5	0.999538546742
42	1237447	10.75	0.999536993639
42	1237487	11	0.999517725573
42	1237507	11.25	0.999517725573
42	1237527	11.5	0.999517725573
42	1237547	11.75	0.999517725573
42	1237587	12	0.999476179679
42	1237607	12.25	0.999476179679
42	1237627	12.5	0.999476179679
42	1237647	12.75	0.999476179679
42	1237687	13	0.999434633785
42	1237707	13.25	0.999434633785
42	1237727	13.5	0.999434633785
42	1237747	13.75	0.999434633785
42	1237787	14	0.999393087892
42	1237807	14.25	0.999393087892
42	1237827	14.5	0.999393087892
42	1237847	14.75	0.999393087892
47	0	0	1
47	70	0.25	1
47	90	0.5	1
47	29240	0.75	0.999968372402
47	65378	1	0.999957320965
47	100724	1.25	0.999946293065
47	119341	1.5	0.999939648481
47	119361	1.75	0.999939648481
47	132004	2	0.999913738023
47	132079	2.25	0.999913675552
47	151467	2.5	0.999892052117
47	188677	2.75	0.999880349822
47	239233	3	0.999868431769
47	290139	3.25	0.999856666274
47	343623	3.5	0.999844819792
47	395588	3.75	0.999832897581
47	438048	4	0.999821011276
47	467943	4.25	0.999809346614
47	498598	4.5	0.999797428678
47	529270	4.75	0.999785663029
47	565171	5	0.999773747373
47	613804	5.25	0.999761865294
47	649215	5.5	0.999750014479
47	684615	5.75	0.99973813767
47	730956	6	0.999726260031
47	775274	6.25	0.999714397702
47	814268	6.5	0.999702672269
47	829116	6.75	0.999695818056
47	837101	7	0.999681030568
47	864027	7.25	0.999669377759
47	891518	7.5	0.999657669751
47	919862	7.75	0.999646004315
47	962215	8	0.999634147524
47	1001385	8.25	0.999622286058
47	1026128	8.5	0.999611666336
47	1047277	8.75	0.999599139766
47	1074070	9	0.999587209385
47	1098217	9.25	0.999575419025
47	1103233	9.5	0.999571733155
47	1139775	9.75	0.999553148094
47	1177732	10	0.999541727679
47	1209228	10.25	0.999530073432
47	1235548	10.5	0.999518493855
47	1237448	10.75	0.999516890075
47	1237488	11	0.999497622009
47	1237508	11.25	0.999497622009
47	1237528	11.5	0.999497622009
47	1237548	11.75	0.999497622009
47	1237588	12	0.999456076116
47	1237608	12.25	0.999456076116
47	1237628	12.5	0.999456076116
47	1237648	12.75	0.999456076116
47	1237688	13	0.999414530222
47	1237708	13.25	0.999414530222
47	1237728	13.5	0.999414530222
47	1237748	13.75	0.999414530222
47	1237788	14	0.999372984328
47	1237808	14.25	0.999372984328
47	1237828	14.5	0.999372984328
47	1237848	14.75	0.999372984328
52	0	0	1
52	71	0.25	1
52	91	0.5	1
52	29241	0.75	0.999968252057
52	65379	1	0.999957140947
52	100725	1.25	0.999946060578
52	119342	1.5	0.999939085028
52	119362	1.75	0.999939085028
52	132005	2	0.999914102748
52	132080	2.25	0.999914102748
52	151468	2.5	0.999893408007
52	188678	2.75	0.999882161651
52	239234	3	0.999870483841
52	290140	3.25	0.999858919169
52	343624	3.5	0.999847773937
52	395589	3.75	0.999836749119
52	438049	4	0.999825403176
52	467944	4.25	0.999813689252
52	498599	4.5	0.999801997091
52	529271	4.75	0.99979029193
52	565172	5	0.999778600503
52	613805	5.25	0.999766796904
52	649216	5.5	0.999755174994
52	684616	5.75	0.999743518159
52	730957	6	0.999731859767
52	775275	6.25	0.999720191688
52	814269	6.5	0.999708809151
52	829117	6.75	0.99970179275
52	837102	7	0.999687277843
52	864028	7.25	0.999676796857
52	891519	7.5	0.99966597647
52	919863	7.75	0.999655540725
52	962216	8	0.999644075817
52	1001386	8.25	0.999632472775
52	1026129	8.5	0.99962192853
52	1047278	8.75	0.999609616116
52	1074071	9	0.999597903841
52	1098218	9.25	0.999586321869
52	1103234	9.5	0.999582636
52	1139776	9.75	0.99956419177
52	1177733	10	0.999552700201
52	1209229	10.25	0.9995413889
52	1235549	10.5	0.99953035966
52	1237449	10.75	0.999528789459
52	1237489	11	0.999509521393
52	1237509	11.25	0.999509521393
52	1237529	11.5	0.999509521393
52	1237549	11.75	0.999509521393
52	1237589	12	0.999467975499
52	1237609	12.25	0.999467975499
52	1237629	12.5	0.999467975499
52	1237649	12.75	0.999467975499
52	1237689	13	0.999426429605
52	1237709	13.25	0.999426429605
52	1237729	13.5	0.999426429605
52	1237749	13.75	0.999426429605
52	1237789	14	0.999384883712
52	1237809	14.25	0.999384883712
52	1237829	14.5	0.999384883712
52	1237849	14.75	0.999384883712
57	0	0	1
57	72	0.25	1
57	92	0.5	1
57	29242	0.75	0.999968054723
57	65380	1	0.999956731455
57	100726	1.25	0.999945555041
57	119343	1.5	0.999939040046
57	119363	1.75	0.999939040046
57	132006	2	0.999914057766
57	132081	2.25	0.999914057766
57	151469	2.5	0.99989297393
57	188679	2.75	0.999881775601
57	239235	3	0.999869954193
57	290141	3.25	0.999858281153
57	343625	3.5	0.999846710864
57	395590	3.75	0.999835034767
57	438050	4	0.999823427684
57	467945	4.25	0.999811806081
57	498600	4.5	0.999800069903
57	529272	4.75	0.999788387265
57	565173	5	0.999776651653
57	613806	5.25	0.999765319754
57	649217	5.5	0.999753932552
57	684617	5.75	0.999742661792
57	730958	6	0.999731262391
57	775276	6.25	0.999719848448
57	814270	6.5	0.999708507634
57	829118	6.75	0.999701408566
57	837103	7	0.999686796322
57	864029	7.25	0.999675895052
57	891520	7.5	0.99966489464
57	919864	7.75	0.999654190621
57	962217	8	0.999642694592
57	1001387	8.25	0.999631001455
57	1026130	8.5	0.999620502257
57	1047279	8.75	0.999608180126
57	1074072	9	0.999596505406
57	1098219	9.25	0.999584884609
57	1103235	9.5	0.99958119874
57	1139777	9.75	0.99956261209
57	1177734	10	0.999551148906
57	1209230	10.25	0.999539939157
57	1235550	10.5	0.999528909917
57	1237450	10.75	0.999527339716
57	1237490	11	0.99950807165
57	1237510	11.25	0.99950807165
57	1237530	11.5	0.99950807165
57	1237550	11.75	0.99950807165
57	1237590	12	0.999466525756
57	1237610	12.25	0.999466525756
57	1237630	12.5	0.999466525756
57	1237650	12.75	0.999466525756
57	1237690	13	0.999424979862
57	1237710	13.25	0.999424979862
57	1237730	13.5	0.999424979862
57	1237750	13.75	0.999424979862
57	1237790	14	0.999383433969
57	1237810	14.25	0.999383433969
57	1237830	14.5	0.999383433969
57	1237850	14.75	0.999383433969
62	0	0	1
62	73	0.25	1
62	93	0.5	1
62	29243	0.75	0.999967920474
62	65381	1	0.999956286886
62	100727	1.25	0.999944681494
62	119344	1.5	0.999938118063
62	119364	1.75	0.999938118063
62	132007	2	0.999912222864
62	132082	2.25	0.999912160392
62	151470	2.5	0.999890571833
62	188680	2.75	0.999878936801
62	239236	3	0.999867345648
62	290142	3.25	0.999855615001
62	343626	3.5	0.999844039313
62	395591	3.75	0.999832520251
62	438051	4	0.999821008844
62	467946	4.25	0.999810485088
62	498601	4.5	0.999799745623
62	529273	4.75	0.999789197464
62	565174	5	0.999778316418
62	613807	5.25	0.999766908942
62	649218	5.5	0.99975617748
62	684618	5.75	0.999745386377
62	730959	6	0.999733858611
62	775277	6.25	0.999722534415
62	814271	6.5	0.999711899253
62	829119	6.75	0.999707202667
62	837104	7	0.999690341439
62	864030	7.25	0.999678612501
62	891521	7.5	0.999667023741
62	919865	7.75	0.999656055631
62	962218	8	0.999645022462
62	1001388	8.25	0.999638542246
62	1026131	8.5	0.999624932249
62	1047280	8.75	0.999624932249
62	1074073	9	0.999603033298
62	1098220	9.25	0.999603033298
62	1103236	9.5	0.999603033298
62	1139778	9.75	0.999570854531
62	1177735	10	0.999559442135
62	1209231	10.25	0.999548478696
62	1235551	10.5	0.999537471743
62	1237451	10.75	0.999535883221
62	1237491	11	0.999516615155
62	1237511	11.25	0.999516615155
62	1237531	11.5	0.999516615155
62	1237551	11.75	0.999516615155
62	1237591	12	0.999475069262
62	1237611	12.25	0.999475069262
62	1237631	12.5	0.999475069262
62	1237651	12.75	0.999475069262
62	1237691	13	0.999433523368
62	1237711	13.25	0.999433523368
62	1237731	13.5	0.999433523368
62	1237751	13.75	0.999433523368
62	1237791	14	0.999391977474
62	1237811	14.25	0.999391977474
62	1237831	14.5	0.999391977474
62	1237851	14.75	0.999391977474
67	0	0	1
67	74	0.25	1
67	94	0.5	1
67	29244	0.75	0.999968252057
67	65382	1	0.999957140947
67	100728	1.25	0.999946060578
67	119345	1.5	0.999939085028
67	119365	1.75	0.999939085028
67	132008	2	0.999914102748
67	132083	2.25	0.999914102748
67	151471	2.5	0.999893408007
67	188681	2.75	0.999882155021
67	239237	3	0.999870535006
67	290143	3.25	0.99985895486
67	343627	3.5	0.999847507597
67	395592	3.75	0.999835906357
67	438052	4	0.999824337132
67	467947	4.25	0.999812659352
67	498602	4.5	0.999801034763
67	529274	4.75	0.999789231105
67	565175	5	0.999777402413
67	613808	5.25	0.999765744365
67	649219	5.5	0.999753964836
67	684619	5.75	0.999742326982
67	730960	6	0.999730755943
67	775278	6.25	0.999719077801
67	814272	6.5	0.999707407359
67	829120	6.75	0.99970066206
67	837105	7	0.999686147153
67	864031	7.25	0.999675666167
67	891522	7.5	0.99966484578
67	919866	7.75	0.999654410035
67	962219	8	0.999642947808
67	1001389	8.25	0.999631356826
67	1026132	8.5	0.999620844367
67	1047281	8.75	0.999609069343
67	1074074	9	0.999598034641
67	1098221	9.25	0.999587011539
67	1103237	9.5	0.99958345518
67	1139779	9.75	0.99956501095
67	1177736	10	0.999553519382
67	1209232	10.25	0.999542208081
67	1235552	10.5	0.999531178841
67	1237452	10.75	0.99952960864
67	1237492	11	0.999510340574
67	1237512	11.25	0.999510340574
67	1237532	11.5	0.999510340574
67	1237552	11.75	0.999510340574
67	1237592	12	0.99946879468
67	1237612	12.25	0.99946879468
67	1237632	12.5	0.99946879468
67	1237652	12.75	0.99946879468
67	1237692	13	0.999427248786
67	1237712	13.25	0.999427248786
67	1237732	13.5	0.999427248786
67	1237752	13.75	0.999427248786
67	1237792	14	0.999385702892
67	1237812	14.25	0.999385702892
67	1237832	14.5	0.999385702892
67	1237852	14.75	0.999385702892
72	0	0	1
72	75	0.25	1
72	95	0.5	1
72	29245	0.75	0.99996822733
72	65383	1	0.999957099123
72	100729	1.25	0.999946001656
72	119346	1.5	0.999939007331
72	119366	1.75	0.999939007331
72	132009	2	0.999913239401
72	132084	2.25	0.999913239401
72	151472	2.5	0.999892264009
72	188682	2.75	0.999881080734
72	239238	3	0.999869375097
72	290144	3.25	0.999857781339
72	343628	3.5	0.99984623339
72	395593	3.75	0.999834424361
72	438053	4	0.999822722894
72	467948	4.25	0.999810959859
72	498603	4.5	0.99979919629
72	529275	4.75	0.999787449507
72	565176	5	0.999775620333
72	613809	5.25	0.999763871758
72	649220	5.5	0.999752030075
72	684620	5.75	0.999740301707
72	730961	6	0.999728822381
72	775279	6.25	0.999717450311
72	814273	6.5	0.999705979643
72	829121	6.75	0.999699092634
72	837106	7	0.999684567008
72	864032	7.25	0.999674086022
72	891523	7.5	0.999663244588
72	919867	7.75	0.999652669682
72	962220	8	0.999641029955
72	1001390	8.25	0.999629215848
72	1026133	8.5	0.999618645355
72	1047282	8.75	0.999606341565
72	1074075	9	0.999594765115
72	1098222	9.25	0.999583259602
72	1103238	9.5	0.999579805596
72	1139780	9.75	0.999561408709
72	1177737	10	0.999549951335
72	1209233	10.25	0.999538752558
72	1235553	10.5	0.99952794739
72	1237453	10.75	0.999526394286
72	1237493	11	0.99950712622
72	1237513	11.25	0.99950712622
72	1237533	11.5	0.99950712622
72	1237553	11.75	0.99950712622
72	1237593	12	0.999465580326
72	1237613	12.25	0.999465580326
72	1237633	12.5	0.999465580326
72	1237653	12.75	0.999465580326
72	1237693	13	0.999424034433
72	1237713	13.25	0.999424034433
72	1237733	13.5	0.999424034433
72	1237753	13.75	0.999424034433
72	1237793	14	0.999382488539
72	1237813	14.25	0.999382488539
72	1237833	14.5	0.999382488539
72	1237853	14.75	0.999382488539
77	0	0	1
77	76	0.25	1
77	96	0.5	1
77	29246	0.75	0.999967741193
77	65384	1	0.999956135139
77	100730	1.25	0.999944551666
77	119347	1.5	0.999938106575
77	119367	1.75	0.999938106575
77	132010	2	0.999912211376
77	132085	2.25	0.999912148905
77	151473	2.5	0.999891015087
77	188683	2.75	0.999880045549
77	239239	3	0.99986883353
77	290145	3.25	0.999857412902
77	343629	3.5	0.999845833581
77	395594	3.75	0.999834223927
77	438054	4	0.999822546044
77	467949	4.25	0.999812075781
77	498604	4.5	0.999801361656
77	529276	4.75	0.999790813497
77	565177	5	0.999779932389
77	613810	5.25	0.999768524929
77	649221	5.5	0.999757788268
77	684621	5.75	0.999747089894
77	730962	6	0.999735766567
77	775280	6.25	0.999724541275
77	814274	6.5	0.999713419537
77	829122	6.75	0.999708722951
77	837107	7	0.99969184851
77	864033	7.25	0.999680222018
77	891524	7.5	0.999668530765
77	919868	7.75	0.99965686928
77	962221	8	0.999645186561
77	1001391	8.25	0.999638471838
77	1026134	8.5	0.999624777378
77	1047283	8.75	0.999624777378
77	1074076	9	0.999602878427
77	1098223	9.25	0.999602878427
77	1103239	9.5	0.999602878427
77	1139781	9.75	0.999570675072
77	1177738	10	0.999559189384
77	1209234	10.25	0.999548152197
77	1235554	10.5	0.999537029993
77	1237454	10.75	0.99953544147
77	1237494	11	0.999516173405
77	1237514	11.25	0.999516173405
77	1237534	11.5	0.999516173405
77	1237554	11.75	0.999516173405
77	1237594	12	0.999474627511
77	1237614	12.25	0.999474627511
77	1237634	12.5	0.999474627511
77	1237654	12.75	0.999474627511
77	1237694	13	0.999433081617
77	1237714	13.25	0.999433081617
77	1237734	13.5	0.999433081617
77	1237754	13.75	0.999433081617
77	1237794	14	0.999391535723
77	1237814	14.25	0.999391535723
77	1237834	14.5	0.999391535723
77	1237854	14.75	0.999391535723
82	0	0	1
82	77	0.25	1
82	97	0.5	1
82	29247	0.75	0.999967844501
82	65385	1	0.99995626745
82	100731	1.25	0.999944710147
82	119348	1.5	0.999938146716
82	119368	1.75	0.999938146716
82	132011	2	0.999912702261
82	132086	2.25	0.99991263979
82	151474	2.5	0.999891012813
82	188684	2.75	0.999879480635
82	239240	3	0.999867878902
82	290146	3.25	0.999856342837
82	343630	3.5	0.999844761274
82	395595	3.75	0.99983310433
82	438055	4	0.999821847608
82	467950	4.25	0.999811323851
82	498605	4.5	0.999800584386
82	529277	4.75	0.999790036228
82	565178	5	0.99977902266
82	613811	5.25	0.999767289742
82	649222	5.5	0.999756555852
82	684622	5.75	0.999745841585
82	730963	6	0.99973445509
82	775281	6.25	0.999723204595
82	814275	6.5	0.999712161918
82	829123	6.75	0.999707465332
82	837108	7	0.999690835926
82	864034	7.25	0.999679924835
82	891525	7.5	0.999668767386
82	919869	7.75	0.999657119388
82	962222	8	0.99964542609