file 1271 1253793440                                            
version 2
run Three-0-20090924-13:56:35-18867
attr configname Three
attr datetime 20090924-13:56:35
attr experiment Three
attr inifile omnetpp.ini
attr iterationvars ""
attr iterationvars2 $repetition=0
attr measurement ""
attr network sim
attr processid 18867
attr repetition 0
attr replication #0
attr resultdir results
attr runnumber 0
attr seedset 0
vector 2  sim.host[0].batteryStats  capacity(relative)  ETV
2	475 410 0 60 0 10 17 0.664999771733 0.666666666667 11.319938176707 7.5377105640998
vector 7  sim.host[1].batteryStats  capacity(relative)  ETV
7	885 386 0 60 0 10 16 0.664999771733 0.666666666667 10.654937948442 7.0954852595441
