file 8014 1253793440                                            
version 2
run Four-0-20090924-13:56:36-18868
attr configname Four
attr datetime 20090924-13:56:36
attr experiment Four
attr inifile omnetpp.ini
attr iterationvars ""
attr iterationvars2 $repetition=0
attr measurement ""
attr network sim
attr processid 18868
attr repetition 0
attr replication #0
attr resultdir results
attr runnumber 0
attr seedset 0
vector 2  sim.host[0].batteryStats  capacity(relative)  ETV
2	533 2449 0 44441 0 9.9 100 0.391559855556 1 60.759328735613 40.013214938598
vector 7  sim.host[1].batteryStats  capacity(relative)  ETV
7	2982 2452 0 44442 0 9.9 100 0.391454766667 1 61.320919257844 40.698349472548
vector 12  sim.host[2].batteryStats  capacity(relative)  ETV
12	5434 2580 0 44443 0 9.9 100 0.392123222222 1 60.79277071339 40.064193980818
