version 2
run Seven-0-20110329-15:17:54-9093
attr configname Seven
attr datetime 20110329-15:17:54
attr experiment Seven
attr inifile omnetpp.ini
attr iterationvars ""
attr iterationvars2 $repetition=0
attr measurement ""
attr network sim
attr processid 9093
attr repetition 0
attr replication #0
attr resultdir results
attr runnumber 0
attr seedset 0

vector 2  sim.host[0].batteryStats  capacity(relative)  ETV
vector 8  sim.host[1].batteryStats  capacity(relative)  ETV
vector 14  sim.host[2].batteryStats  capacity(relative)  ETV
2	0	0	1
2	0	0	1
2	10	0.1	0.986111111111
2	13	0.2	0.972222222222
2	16	0.3	0.958333333333
2	19	0.4	0.944444444444
2	22	0.5	0.930555555556
2	25	0.6	0.916666666667
2	28	0.7	0.902777777778
2	31	0.8	0.888888888889
2	34	0.9	0.875
2	37	1	0.861111111111
2	40	1.1	0.847222222222
2	43	1.2	0.833333333333
2	46	1.3	0.819444444444
2	49	1.4	0.805555555556
2	52	1.5	0.791666666667
2	55	1.6	0.777777777778
2	58	1.7	0.763888888889
2	61	1.8	0.75
2	64	1.9	0.736111111111
2	67	2	0.722222222222
2	70	2.1	0.708333333333
2	73	2.2	0.694444444444
2	76	2.3	0.680555555556
2	79	2.4	0.666666666667
2	82	2.5	0.652777777778
2	85	2.6	0.638888888889
2	88	2.7	0.625
2	91	2.8	0.611111111111
2	94	2.9	0.597222222222
2	105	2.960980196505	0.588752750485
2	111	2.961836196505	0.588752512708
2	128	2.963087680412	0.588578695498
2	133	2.963359680412	0.588578619943
2	142	2.963369680412	0.588577231054
2	147	2.963617680412	0.588577162165
2	156	2.963627680412	0.588575773276
2	161	2.964483680412	0.588575535498
2	172	2.964493680412	0.588574146609
2	179	2.964741680412	0.588574077721
2	192	2.965979951788	0.588402095585
2	198	2.966251951788	0.588401944474
2	209	2.966261951788	0.588400555585
2	214	2.966509951788	0.588400486696
2	220	2.966519951788	0.588399097807
2	226	2.967375951788	0.588398622252
2	239	2.967385951788	0.588397233363
2	246	2.967633951788	0.588397164474
2	255	3	0.58390188
2	258	3.1	0.570012991111
2	261	3.2	0.556124102222
2	264	3.3	0.542235213333
2	267	3.4	0.528346324444
2	270	3.5	0.514457435556
2	273	3.6	0.500568546667
2	276	3.7	0.486679657778
2	279	3.8	0.472790768889
2	281	3.9	0.45890188
2	283	4	0.445012991111
2	285	4.1	0.431124102222
2	287	4.2	0.417235213333
2	289	4.3	0.403346324444
2	291	4.4	0.389457435556
2	293	4.5	0.375568546667
2	295	4.6	0.361679657778
2	297	4.7	0.347790768889
2	299	4.8	0.33390188
2	301	4.9	0.320012991111
2	303	5	0.306124102222
2	305	5.1	0.292235213333
2	307	5.2	0.278346324444
2	309	5.3	0.264457435556
2	311	5.4	0.250568546667
2	313	5.5	0.236679657778
2	315	5.6	0.222790768889
2	317	5.7	0.20890188
2	319	5.8	0.195012991111
2	321	5.9	0.181124102222
2	323	6	0.167235213333
2	325	6.1	0.153346324444
2	327	6.2	0.139457435556
2	329	6.3	0.125568546667
2	331	6.4	0.111679657778
2	333	6.5	0.0977907688889
2	335	6.6	0.08390188
2	337	6.7	0.0700129911111
2	339	6.8	0.0561241022222
2	346	6.808084011628	0.0550013228294
2	352	6.808940011628	0.0550008472739
2	368	6.813767632253	0.0543303444093
2	373	6.814039632253	0.0543302688537
2	377	6.814049632253	0.0543288799649
2	383	6.814297632253	0.0543287421871
2	392	6.814307632253	0.0543273532982
2	397	6.815163632253	0.0543271155204
2	403	6.815173632253	0.0543257266315
2	409	6.815421632253	0.0543255888537
2	419	6.9	0.0425785933333
2	421	7	0.0286897044444
2	423	7.1	0.0148008155556
2	425	7.2	0.000911926666666
2	427	7.3	0
8	0	0	1
8	0	0	1
8	11	0.1	0.986111111111
8	14	0.2	0.972222222222
8	17	0.3	0.958333333333
8	20	0.4	0.944444444444
8	23	0.5	0.930555555556
8	26	0.6	0.916666666667
8	29	0.7	0.902777777778
8	32	0.8	0.888888888889
8	35	0.9	0.875
8	38	1	0.861111111111
8	41	1.1	0.847222222222
8	44	1.2	0.833333333333
8	47	1.3	0.819444444444
8	50	1.4	0.805555555556
8	53	1.5	0.791666666667
8	56	1.6	0.777777777778
8	59	1.7	0.763888888889
8	62	1.8	0.75
8	65	1.9	0.736111111111
8	68	2	0.722222222222
8	71	2.1	0.708333333333
8	74	2.2	0.694444444444
8	77	2.3	0.680555555556
8	80	2.4	0.666666666667
8	83	2.5	0.652777777778
8	86	2.6	0.638888888889
8	89	2.7	0.625
8	92	2.8	0.611111111111
8	95	2.9	0.597222222222
8	102	2.960980196505	0.588752750485
8	108	2.961836196505	0.58875227493
8	129	2.963087680412	0.588578457721
8	135	2.963359680412	0.588578382165
8	139	2.963369680412	0.588576993276
8	145	2.963617680412	0.588576855498
8	157	2.963627680412	0.588575466609
8	163	2.964483680412	0.588575228832
8	169	2.964493680412	0.588573839943
8	176	2.964741680412	0.588573702165
8	195	2.965979951788	0.588401720029
8	200	2.966251951788	0.588401644474
8	206	2.966261951788	0.588400255585
8	212	2.966509951788	0.588400117807
8	223	2.966519951788	0.588398728918
8	228	2.967375951788	0.588398491141
8	236	2.967385951788	0.588397102252
8	243	2.967633951788	0.588396964474
8	256	3	0.58390168
8	259	3.1	0.570012791111
8	262	3.2	0.556123902222
8	265	3.3	0.542235013333
8	268	3.4	0.528346124444
8	271	3.5	0.514457235556
8	274	3.6	0.500568346667
8	277	3.7	0.486679457778
8	280	3.8	0.472790568889
8	282	3.9	0.45890168
8	284	4	0.445012791111
8	286	4.1	0.431123902222
8	288	4.2	0.417235013333
8	290	4.3	0.403346124444
8	292	4.4	0.389457235556
8	294	4.5	0.375568346667
8	296	4.6	0.361679457778
8	298	4.7	0.347790568889
8	300	4.8	0.33390168
8	302	4.9	0.320012791111
8	304	5	0.306123902222
8	306	5.1	0.292235013333
8	308	5.2	0.278346124444
8	310	5.3	0.264457235556
8	312	5.4	0.250568346667
8	314	5.5	0.236679457778
8	316	5.6	0.222790568889
8	318	5.7	0.20890168
8	320	5.8	0.195012791111
8	322	5.9	0.181123902222
8	324	6	0.167235013333
8	326	6.1	0.153346124444
8	328	6.2	0.139457235556
8	330	6.3	0.125568346667
8	332	6.4	0.111679457778
8	334	6.5	0.0977905688889
8	336	6.6	0.08390168
8	338	6.7	0.0700127911111
8	340	6.8	0.0561239022222
8	349	6.808084011628	0.0550011228294
8	355	6.808940011628	0.0550008850517
8	365	6.813767632253	0.0543303821871
8	371	6.814039632253	0.054330231076
8	380	6.814049632253	0.0543288421871
8	385	6.814297632253	0.0543287732982
8	389	6.814307632253	0.0543273844093
8	395	6.815163632253	0.0543269088537
8	406	6.815173632253	0.0543255199649
8	412	6.815421632253	0.054325451076
8	420	6.9	0.0425784555556
8	422	7	0.0286895666667
8	424	7.1	0.0148006777778
8	426	7.2	0.000911788888888
8	428	7.3	0
14	0	0	0.5
14	0	0	0.5
14	12	0.1	0.486111111111
14	15	0.2	0.472222222222
14	18	0.3	0.458333333333
14	21	0.4	0.444444444444
14	24	0.5	0.430555555556
14	27	0.6	0.416666666667
14	30	0.7	0.402777777778
14	33	0.8	0.388888888889
14	36	0.9	0.375
14	39	1	0.361111111111
14	42	1.1	0.347222222222
14	45	1.2	0.333333333333
14	48	1.3	0.319444444444
14	51	1.4	0.305555555556
14	54	1.5	0.291666666667
14	57	1.6	0.277777777778
14	60	1.7	0.263888888889
14	63	1.8	0.25
14	66	1.9	0.236111111111
14	69	2	0.222222222222
14	72	2.1	0.208333333333
14	75	2.2	0.194444444444
14	78	2.3	0.180555555556
14	81	2.4	0.166666666667
14	84	2.5	0.152777777778
14	87	2.6	0.138888888889
14	90	2.7	0.125
14	93	2.8	0.111111111111
14	96	2.9	0.0972222222222
14	106	2.960980196505	0.0887527504854
14	115	2.961836196505	0.0887525127076
14	125	2.963087680412	0.0885786954983
14	131	2.963359680412	0.0885785443872
14	143	2.963369680412	0.0885771554983
14	149	2.963617680412	0.0885770866094
14	153	2.963627680412	0.0885756977206
14	159	2.964483680412	0.088575222165
14	173	2.964493680412	0.0885738332761
14	181	2.964741680412	0.0885737643872
14	196	2.965979951788	0.0884017822517
14	203	2.966251951788	0.0884017066961
14	210	2.966261951788	0.0884003178072
14	217	2.966509951788	0.0884002489183
14	224	2.966519951788	0.0883988600294
14	233	2.967375951788	0.0883986222517
14	240	2.967385951788	0.0883972333628
14	249	2.967633951788	0.0883971644739
14	257	3	0.08390188
14	260	3.1	0.0700129911111
14	263	3.2	0.0561241022222
14	266	3.3	0.0422352133333
14	269	3.4	0.0283463244444
14	272	3.5	0.0144574355556
14	275	3.6	0.000568546666667
14	278	3.7	0
