version 2
run Nine-0-20110329-15:18:09-9096
attr configname Nine
attr datetime 20110329-15:18:09
attr experiment Nine
attr inifile omnetpp.ini
attr iterationvars ""
attr iterationvars2 $repetition=0
attr measurement ""
attr network sim
attr processid 9096
attr repetition 0
attr replication #0
attr resultdir results
attr runnumber 0
attr seedset 0

vector 2  sim.host[0].batteryStats  capacity(relative)  ETV
vector 8  sim.host[1].batteryStats  capacity(relative)  ETV
vector 14  sim.host[2].batteryStats  capacity(relative)  ETV
vector 20  sim.host[3].batteryStats  capacity(relative)  ETV
vector 26  sim.host[4].batteryStats  capacity(relative)  ETV
vector 32  sim.host[5].batteryStats  capacity(relative)  ETV
vector 38  sim.host[6].batteryStats  capacity(relative)  ETV
vector 44  sim.host[7].batteryStats  capacity(relative)  ETV
vector 50  sim.host[8].batteryStats  capacity(relative)  ETV
vector 56  sim.host[9].batteryStats  capacity(relative)  ETV
vector 62  sim.host[10].batteryStats  capacity(relative)  ETV
vector 68  sim.host[11].batteryStats  capacity(relative)  ETV
vector 74  sim.host[12].batteryStats  capacity(relative)  ETV
vector 80  sim.host[13].batteryStats  capacity(relative)  ETV
vector 86  sim.host[14].batteryStats  capacity(relative)  ETV
vector 92  sim.host[15].batteryStats  capacity(relative)  ETV
vector 98  sim.host[16].batteryStats  capacity(relative)  ETV
vector 104  sim.host[17].batteryStats  capacity(relative)  ETV
vector 110  sim.host[18].batteryStats  capacity(relative)  ETV
vector 116  sim.host[19].batteryStats  capacity(relative)  ETV
2	0	0	1
2	61	0.25	1
2	81	0.5	1
2	26304	0.75	0.999968250306
2	26344	1	0.999957488031
2	26364	1.25	0.999957488031
2	26384	1.5	0.999957488031
2	26404	1.75	0.999957488031
2	28299	2	0.999915865847
2	28319	2.25	0.999915865847
2	43504	2.5	0.999895571577
2	54738	2.75	0.999883844038
2	73955	3	0.999873002
2	81654	3.25	0.99986452976
2	94685	3.5	0.999854360637
2	99194	3.75	0.999848580165
2	112991	4	0.999830068736
2	117749	4.25	0.999828317798
2	126447	4.5	0.999808786881
2	135294	4.75	0.999805200106
2	143805	5	0.999787242871
2	167012	5.25	0.999776982678
2	167032	5.5	0.999776982678
2	190405	5.75	0.99975437289
2	197707	6	0.99974359652
2	197727	6.25	0.99974359652
2	197747	6.5	0.99974359652
2	197767	6.75	0.99974359652
2	205536	7	0.999701684344
2	211322	7.25	0.999699042983
2	214894	7.5	0.999680508742
2	226534	7.75	0.999675554535
2	239053	8	0.999658866272
2	239073	8.25	0.999658866272
2	239093	8.5	0.999658866272
2	253704	8.75	0.99962917142
2	253744	9	0.999617034968
2	253764	9.25	0.999617034968
2	253784	9.5	0.999617034968
2	282669	9.75	0.999585649265
2	282709	10	0.999574510079
2	282729	10.25	0.999574510079
2	282749	10.5	0.999574510079
2	282769	10.75	0.999574510079
2	282809	11	0.999532964185
2	282829	11.25	0.999532964185
2	282849	11.5	0.999532964185
2	282869	11.75	0.999532964185
2	282909	12	0.999491418292
2	282929	12.25	0.999491418292
2	282949	12.5	0.999491418292
2	282969	12.75	0.999491418292
2	283009	13	0.999449872398
2	283029	13.25	0.999449872398
2	283049	13.5	0.999449872398
2	283069	13.75	0.999449872398
2	283109	14	0.999408326504
2	283129	14.25	0.999408326504
2	283149	14.5	0.999408326504
2	283169	14.75	0.999408326504
8	0	0	1
8	62	0.25	1
8	82	0.5	1
8	26305	0.75	0.999968404217
8	26345	1	0.999957641942
8	26365	1.25	0.999957641942
8	26385	1.5	0.999957641942
8	26405	1.75	0.999957641942
8	28300	2	0.999915928319
8	28320	2.25	0.999915928319
8	43505	2.5	0.999895618155
8	54739	2.75	0.999884519424
8	73956	3	0.999872971177
8	81655	3.25	0.999864554384
8	94686	3.5	0.999864554384
8	99195	3.75	0.999848929788
8	112992	4	0.999830812518
8	117750	4.25	0.99982920026
8	126448	4.5	0.999810257644
8	135295	4.75	0.99980662428
8	143806	5	0.999788932604
8	167013	5.25	0.999780761945
8	167033	5.5	0.999780761945
8	190406	5.75	0.999757087719
8	197708	6	0.999746341865
8	197728	6.25	0.999746341865
8	197748	6.5	0.999746341865
8	197768	6.75	0.999746341865
8	205537	7	0.999704389772
8	211323	7.25	0.999701731041
8	214895	7.5	0.999683193712
8	226535	7.75	0.999678274834
8	239054	8	0.999661850935
8	239074	8.25	0.999661850935
8	239094	8.5	0.999661850935
8	253705	8.75	0.999661850935
8	253745	9	0.999620305041
8	253765	9.25	0.999620305041
8	253785	9.5	0.999620305041
8	282670	9.75	0.999589240303
8	282710	10	0.999578101117
8	282730	10.25	0.999578101117
8	282750	10.5	0.999578101117
8	282770	10.75	0.999578101117
8	282810	11	0.999536555223
8	282830	11.25	0.999536555223
8	282850	11.5	0.999536555223
8	282870	11.75	0.999536555223
8	282910	12	0.999495009329
8	282930	12.25	0.999495009329
8	282950	12.5	0.999495009329
8	282970	12.75	0.999495009329
8	283010	13	0.999453463436
8	283030	13.25	0.999453463436
8	283050	13.5	0.999453463436
8	283070	13.75	0.999453463436
8	283110	14	0.999411917542
8	283130	14.25	0.999411917542
8	283150	14.5	0.999411917542
8	283170	14.75	0.999411917542
14	0	0	1
14	63	0.25	1
14	83	0.5	1
14	26306	0.75	0.999968305312
14	26346	1	0.999957543038
14	26366	1.25	0.999957543038
14	26386	1.5	0.999957543038
14	26406	1.75	0.999957543038
14	28301	2	0.999915957472
14	28321	2.25	0.999915957472
14	43506	2.5	0.99989565966
14	54740	2.75	0.999884560929
14	73957	3	0.999872992122
14	81656	3.25	0.999864769687
14	94687	3.5	0.999864769687
14	99196	3.75	0.99984914509
14	112993	4	0.99983102782
14	117751	4.25	0.999829415563
14	126449	4.5	0.999810472947
14	135296	4.75	0.999806839583
14	143807	5	0.999788926801
14	167014	5.25	0.999780729804
14	167034	5.5	0.999780729804
14	190407	5.75	0.999757055578
14	197709	6	0.999746309724
14	197729	6.25	0.999746309724
14	197749	6.5	0.999746309724
14	197769	6.75	0.999746309724
14	205538	7	0.999704357631
14	211324	7.25	0.9997016989
14	214896	7.5	0.999683139047
14	226536	7.75	0.999678242693
14	239055	8	0.999661818794
14	239075	8.25	0.999661818794
14	239095	8.5	0.999661818794
14	253706	8.75	0.999634206404
14	253746	9	0.999620189252
14	253766	9.25	0.999620189252
14	253786	9.5	0.999620189252
14	282671	9.75	0.999588952771
14	282711	10	0.999577813584
14	282731	10.25	0.999577813584
14	282751	10.5	0.999577813584
14	282771	10.75	0.999577813584
14	282811	11	0.999536267691
14	282831	11.25	0.999536267691
14	282851	11.5	0.999536267691
14	282871	11.75	0.999536267691
14	282911	12	0.999494721797
14	282931	12.25	0.999494721797
14	282951	12.5	0.999494721797
14	282971	12.75	0.999494721797
14	283011	13	0.999453175903
14	283031	13.25	0.999453175903
14	283051	13.5	0.999453175903
14	283071	13.75	0.999453175903
14	283111	14	0.99941163001
14	283131	14.25	0.99941163001
14	283151	14.5	0.99941163001
14	283171	14.75	0.99941163001
20	0	0	1
20	64	0.25	1
20	84	0.5	1
20	26307	0.75	0.999968441958
20	26347	1	0.999957679683
20	26367	1.25	0.999957679683
20	26387	1.5	0.999957679683
20	26407	1.75	0.999957679683
20	28302	2	0.999916133789
20	28322	2.25	0.999916133789
20	43507	2.5	0.999898161179
20	54741	2.75	0.999884172322
20	73958	3	0.999873136663
20	81657	3.25	0.999873136663
20	94688	3.5	0.999854556402
20	99197	3.75	0.999849141471
20	112994	4	0.999830241802
20	117752	4.25	0.999828470144
20	126450	4.5	0.999808897098
20	135297	4.75	0.999805196398
20	143808	5	0.99978757643
20	167015	5.25	0.999777242446
20	167035	5.5	0.999777242446
20	190408	5.75	0.999754842909
20	197710	6	0.999744257264
20	197730	6.25	0.999744257264
20	197750	6.5	0.999744257264
20	197770	6.75	0.999744257264
20	205539	7	0.99970256274
20	211325	7.25	0.999700070585
20	214897	7.5	0.999681646015
20	226537	7.75	0.999677135232
20	239056	8	0.999660003853
20	239076	8.25	0.999660003853
20	239096	8.5	0.999660003853
20	253707	8.75	0.999629974763
20	253747	9	0.99961784903
20	253767	9.25	0.99961784903
20	253787	9.5	0.99961784903
20	282672	9.75	0.999586624887
20	282712	10	0.999575449722
20	282732	10.25	0.999575449722
20	282752	10.5	0.999575449722
20	282772	10.75	0.999575449722
20	282812	11	0.999533903828
20	282832	11.25	0.999533903828
20	282852	11.5	0.999533903828
20	282872	11.75	0.999533903828
20	282912	12	0.999492357934
20	282932	12.25	0.999492357934
20	282952	12.5	0.999492357934
20	282972	12.75	0.999492357934
20	283012	13	0.99945081204
20	283032	13.25	0.99945081204
20	283052	13.5	0.99945081204
20	283072	13.75	0.99945081204
20	283112	14	0.999409266147
20	283132	14.25	0.999409266147
20	283152	14.5	0.999409266147
20	283172	14.75	0.999409266147
26	0	0	1
26	65	0.25	1
26	85	0.5	1
26	26308	0.75	0.999968441958
26	26348	1	0.999957679683
26	26368	1.25	0.999957679683
26	26388	1.5	0.999957679683
26	26408	1.75	0.999957679683
26	28303	2	0.999916133789
26	28323	2.25	0.999916133789
26	43508	2.5	0.999898161179
26	54742	2.75	0.99988417936
26	73959	3	0.999873102093
26	81658	3.25	0.999873102093
26	94689	3.5	0.99985450553
26	99198	3.75	0.999849090599
26	112995	4	0.999830178125
26	117753	4.25	0.999828419273
26	126451	4.5	0.999809030139
26	135298	4.75	0.999805542597
26	143809	5	0.999787922629
26	167016	5.25	0.999777578519
26	167036	5.5	0.999777578519
26	190409	5.75	0.999754846668
26	197711	6	0.999744261022
26	197731	6.25	0.999744261022
26	197751	6.5	0.999744261022
26	197771	6.75	0.999744261022
26	205540	7	0.999702566498
26	211326	7.25	0.999700074344
26	214898	7.5	0.999681649774
26	226538	7.75	0.999677138991
26	239057	8	0.999659998348
26	239077	8.25	0.999659998348
26	239097	8.5	0.999659998348
26	253708	8.75	0.999629860773
26	253748	9	0.99961773504
26	253768	9.25	0.99961773504
26	253788	9.5	0.99961773504
26	282673	9.75	0.999586485285
26	282713	10	0.99957531012
26	282733	10.25	0.99957531012
26	282753	10.5	0.99957531012
26	282773	10.75	0.99957531012
26	282813	11	0.999533764226
26	282833	11.25	0.999533764226
26	282853	11.5	0.999533764226
26	282873	11.75	0.999533764226
26	282913	12	0.999492218332
26	282933	12.25	0.999492218332
26	282953	12.5	0.999492218332
26	282973	12.75	0.999492218332
26	283013	13	0.999450672439
26	283033	13.25	0.999450672439
26	283053	13.5	0.999450672439
26	283073	13.75	0.999450672439
26	283113	14	0.999409126545
26	283133	14.25	0.999409126545
26	283153	14.5	0.999409126545
26	283173	14.75	0.999409126545
32	0	0	1
32	66	0.25	1
32	86	0.5	1
32	26309	0.75	0.999968613701
32	26349	1	0.999957851426
32	26369	1.25	0.999957851426
32	26389	1.5	0.999957851426
32	26409	1.75	0.999957851426
32	28304	2	0.999916305532
32	28324	2.25	0.999916305532
32	43509	2.5	0.999898332922
32	54743	2.75	0.999884331259
32	73960	3	0.999873279604
32	81659	3.25	0.999873279604
32	94690	3.5	0.999854689217
32	99199	3.75	0.999849274286
32	112996	4	0.999830682865
32	117754	4.25	0.999829013835
32	126452	4.5	0.999809440788
32	135299	4.75	0.999805743177
32	143810	5	0.999788123209
32	167017	5.25	0.999777791905
32	167037	5.5	0.999777791905
32	190410	5.75	0.999755069317
32	197712	6	0.999744483671
32	197732	6.25	0.999744483671
32	197752	6.5	0.999744483671
32	197772	6.75	0.999744483671
32	205541	7	0.999702789148
32	211327	7.25	0.999700296993
32	214899	7.5	0.999681872423
32	226539	7.75	0.99967736164
32	239058	8	0.999660234211
32	239078	8.25	0.999660234211
32	239098	8.5	0.999660234211
32	253709	8.75	0.999630093664
32	253749	9	0.99961796793
32	253769	9.25	0.99961796793
32	253789	9.5	0.99961796793
32	282674	9.75	0.999586746875
32	282714	10	0.99957557171
32	282734	10.25	0.99957557171
32	282754	10.5	0.99957557171
32	282774	10.75	0.99957557171
32	282814	11	0.999534025816
32	282834	11.25	0.999534025816
32	282854	11.5	0.999534025816
32	282874	11.75	0.999534025816
32	282914	12	0.999492479923
32	282934	12.25	0.999492479923
32	282954	12.5	0.999492479923
32	282974	12.75	0.999492479923
32	283014	13	0.999450934029
32	283034	13.25	0.999450934029
32	283054	13.5	0.999450934029
32	283074	13.75	0.999450934029
32	283114	14	0.999409388135
32	283134	14.25	0.999409388135
32	283154	14.5	0.999409388135
32	283174	14.75	0.999409388135
38	0	0	1
38	67	0.25	1
38	87	0.5	1
38	26310	0.75	0.999968521224
38	26350	1	0.999957758949
38	26370	1.25	0.999957758949
38	26390	1.5	0.999957758949
38	26410	1.75	0.999957758949
38	28305	2	0.999916198814
38	28325	2.25	0.999916198814
38	43510	2.5	0.999895998588
38	54744	2.75	0.999884899857
38	73961	3	0.999873708495
38	81660	3.25	0.999865297878
38	94691	3.5	0.999865297878
38	99200	3.75	0.999865297878
38	112997	4	0.999831744626
38	117755	4.25	0.999830132369
38	126453	4.5	0.999811189753
38	135300	4.75	0.999807556388
38	143811	5	0.999789572496
38	167018	5.25	0.999781338921
38	167038	5.5	0.999781338921
38	190411	5.75	0.999757931818
38	197713	6	0.999747355099
38	197733	6.25	0.999747355099
38	197753	6.5	0.999747355099
38	197773	6.75	0.999747355099
38	205542	7	0.999705666365
38	211328	7.25	0.99970317816
38	214900	7.5	0.999684631929
38	226540	7.75	0.999679761344
38	239059	8	0.999663337445
38	239079	8.25	0.999663337445
38	239099	8.5	0.999663337445
38	253710	8.75	0.999635725056
38	253750	9	0.999621707903
38	253770	9.25	0.999621707903
38	253790	9.5	0.999621707903
38	282675	9.75	0.999590690931
38	282715	10	0.999579551745
38	282735	10.25	0.999579551745
38	282755	10.5	0.999579551745
38	282775	10.75	0.999579551745
38	282815	11	0.999538005851
38	282835	11.25	0.999538005851
38	282855	11.5	0.999538005851
38	282875	11.75	0.999538005851
38	282915	12	0.999496459957
38	282935	12.25	0.999496459957
38	282955	12.5	0.999496459957
38	282975	12.75	0.999496459957
38	283015	13	0.999454914064
38	283035	13.25	0.999454914064
38	283055	13.5	0.999454914064
38	283075	13.75	0.999454914064
38	283115	14	0.99941336817
38	283135	14.25	0.99941336817
38	283155	14.5	0.99941336817
38	283175	14.75	0.99941336817
44	0	0	1
44	68	0.25	1
44	88	0.5	1
44	26311	0.75	0.999968262657
44	26351	1	0.999957500383
44	26371	1.25	0.999957500383
44	26391	1.5	0.999957500383
44	26411	1.75	0.999957500383
44	28306	2	0.999915878199
44	28326	2.25	0.999915878199
44	43511	2.5	0.999895583929
44	54745	2.75	0.99988385639
44	73962	3	0.999872693299
44	81661	3.25	0.999864221059
44	94692	3.5	0.999854051936
44	99201	3.75	0.999848271463
44	112998	4	0.999829760035
44	117756	4.25	0.999828009097
44	126454	4.5	0.99980847818
44	135301	4.75	0.999804891405
44	143812	5	0.999786899294
44	167019	5.25	0.999776636013
44	167039	5.5	0.999776636013
44	190412	5.75	0.999754192428
44	197714	6	0.999743610325
44	197734	6.25	0.999743610325
44	197754	6.5	0.999743610325
44	197774	6.75	0.999743610325
44	205543	7	0.999701688431
44	211329	7.25	0.999699062964
44	214901	7.5	0.999680500023
44	226541	7.75	0.999675611114
44	239060	8	0.999658922852
44	239080	8.25	0.999658922852
44	239100	8.5	0.999658922852
44	253711	8.75	0.999629228
44	253751	9	0.999617091548
44	253771	9.25	0.999617091548
44	253791	9.5	0.999617091548
44	282676	9.75	0.999585702757
44	282716	10	0.999574563571
44	282736	10.25	0.999574563571
44	282756	10.5	0.999574563571
44	282776	10.75	0.999574563571
44	282816	11	0.999533017677
44	282836	11.25	0.999533017677
44	282856	11.5	0.999533017677
44	282876	11.75	0.999533017677
44	282916	12	0.999491471783
44	282936	12.25	0.999491471783
44	282956	12.5	0.999491471783
44	282976	12.75	0.999491471783
44	283016	13	0.99944992589
44	283036	13.25	0.99944992589
44	283056	13.5	0.99944992589
44	283076	13.75	0.99944992589
44	283116	14	0.999408379996
44	283136	14.25	0.999408379996
44	283156	14.5	0.999408379996
44	283176	14.75	0.999408379996
50	0	0	1
50	69	0.25	1
50	89	0.5	1
50	26312	0.75	0.999968364965
50	26352	1	0.99995760269
50	26372	1.25	0.99995760269
50	26392	1.5	0.99995760269
50	26412	1.75	0.99995760269
50	28307	2	0.999916056796
50	28327	2.25	0.999916056796
50	43512	2.5	0.999895766862
50	54746	2.75	0.999884668131
50	73963	3	0.999873180916
50	81662	3.25	0.999865065501
50	94693	3.5	0.999865065501
50	99202	3.75	0.999849435645
50	112999	4	0.999831329094
50	117757	4.25	0.999829716836
50	126455	4.5	0.99981077422
50	135302	4.75	0.999807140856
50	143813	5	0.999789369168
50	167020	5.25	0.999781195219
50	167040	5.5	0.999781195219
50	190413	5.75	0.99975756066
50	197715	6	0.999746835513
50	197735	6.25	0.999746835513
50	197755	6.5	0.999746835513
50	197775	6.75	0.999746835513
50	205544	7	0.999704923338
50	211330	7.25	0.999702281977
50	214902	7.5	0.999683733461
50	226542	7.75	0.999678843524
50	239061	8	0.999662419625
50	239081	8.25	0.999662419625
50	239101	8.5	0.999662419625
50	253712	8.75	0.999662419625
50	253752	9	0.999620873731
50	253772	9.25	0.999620873731
50	253792	9.5	0.999620873731
50	282677	9.75	0.999589768834
50	282717	10	0.99957859367
50	282737	10.25	0.99957859367
50	282757	10.5	0.99957859367
50	282777	10.75	0.99957859367
50	282817	11	0.999537047776
50	282837	11.25	0.999537047776
50	282857	11.5	0.999537047776
50	282877	11.75	0.999537047776
50	282917	12	0.999495501882
50	282937	12.25	0.999495501882
50	282957	12.5	0.999495501882
50	282977	12.75	0.999495501882
50	283017	13	0.999453955988
50	283037	13.25	0.999453955988
50	283057	13.5	0.999453955988
50	283077	13.75	0.999453955988
50	283117	14	0.999412410095
50	283137	14.25	0.999412410095
50	283157	14.5	0.999412410095
50	283177	14.75	0.999412410095
56	0	0	1
56	70	0.25	1
56	90	0.5	1
56	26313	0.75	0.99996871749
56	26353	1	0.999957955215
56	26373	1.25	0.999957955215
56	26393	1.5	0.999957955215
56	26413	1.75	0.999957955215
56	28308	2	0.999916241592
56	28328	2.25	0.999916241592
56	43513	2.5	0.999895937604
56	54747	2.75	0.999883717103
56	73964	3	0.999872495416
56	81663	3.25	0.999863950566
56	94694	3.5	0.999853286365
56	99203	3.75	0.999847414165
56	113000	4	0.999828660166
56	117758	4.25	0.999826958712
56	126456	4.5	0.999807296025
56	135303	4.75	0.999803556908
56	143814	5	0.999785680049
56	167021	5.25	0.999775294092
56	167041	5.5	0.999775294092
56	190414	5.75	0.999752393041
56	197716	6	0.999741680699
56	197736	6.25	0.999741680699
56	197756	6.5	0.999741680699
56	197776	6.75	0.999741680699
56	205545	7	0.999699742913
56	211331	7.25	0.999697114357
56	214903	7.5	0.999678586746
56	226543	7.75	0.999673632539
56	239062	8	0.999656477014
56	239082	8.25	0.999656477014
56	239102	8.5	0.999656477014
56	253713	8.75	0.99962622167
56	253753	9	0.999614095936
56	253773	9.25	0.999614095936
56	253793	9.5	0.999614095936
56	282678	9.75	0.999582645522
56	282718	10	0.999571506336
56	282738	10.25	0.999571506336
56	282758	10.5	0.999571506336
56	282778	10.75	0.999571506336
56	282818	11	0.999529960442
56	282838	11.25	0.999529960442
56	282858	11.5	0.999529960442
56	282878	11.75	0.999529960442
56	282918	12	0.999488414549
56	282938	12.25	0.999488414549
56	282958	12.5	0.999488414549
56	282978	12.75	0.999488414549
56	283018	13	0.999446868655
56	283038	13.25	0.999446868655
56	283058	13.5	0.999446868655
56	283078	13.75	0.999446868655
56	283118	14	0.999405322761
56	283138	14.25	0.999405322761
56	283158	14.5	0.999405322761
56	283178	14.75	0.999405322761
62	0	0	1
62	71	0.25	1
62	91	0.5	1
62	26314	0.75	0.999968596377
62	26354	1	0.999957834102
62	26374	1.25	0.999957834102
62	26394	1.5	0.999957834102
62	26414	1.75	0.999957834102
62	28309	2	0.999916288209
62	28329	2.25	0.999916288209
62	43514	2.5	0.999898466339
62	54748	2.75	0.999884454958
62	73965	3	0.999873671219
62	81664	3.25	0.999873671219
62	94695	3.5	0.999855416962
62	99204	3.75	0.999855416962
62	113001	4	0.999831224427
62	117759	4.25	0.999829452769
62	126457	4.5	0.999809873954
62	135304	4.75	0.999806173254
62	143815	5	0.999788572223
62	167022	5.25	0.999778229499
62	167042	5.5	0.999778229499
62	190415	5.75	0.999755748196
62	197717	6	0.999745278284
62	197737	6.25	0.999745278284
62	197757	6.5	0.999745278284
62	197777	6.75	0.999745278284
62	205546	7	0.999703682937
62	211332	7.25	0.999701244185
62	214904	7.5	0.999682840392
62	226544	7.75	0.999678513381
62	239063	8	0.999661325063
62	239083	8.25	0.999661325063
62	239103	8.5	0.999661325063
62	253714	8.75	0.999631191146
62	253754	9	0.999619065412
62	253774	9.25	0.999619065412
62	253794	9.5	0.999619065412
62	282679	9.75	0.999587852952
62	282719	10	0.999576677787
62	282739	10.25	0.999576677787
62	282759	10.5	0.999576677787
62	282779	10.75	0.999576677787
62	282819	11	0.999535131894
62	282839	11.25	0.999535131894
62	282859	11.5	0.999535131894
62	282879	11.75	0.999535131894
62	282919	12	0.999493586
62	282939	12.25	0.999493586
62	282959	12.5	0.999493586
62	282979	12.75	0.999493586
62	283019	13	0.999452040106
62	283039	13.25	0.999452040106
62	283059	13.5	0.999452040106
62	283079	13.75	0.999452040106
62	283119	14	0.999410494212
62	283139	14.25	0.999410494212
62	283159	14.5	0.999410494212
62	283179	14.75	0.999410494212
68	0	0	1
68	72	0.25	1
68	92	0.5	1
68	26315	0.75	0.999968594719
68	26355	1	0.999957832444
68	26375	1.25	0.999957832444
68	26395	1.5	0.999957832444
68	26415	1.75	0.999957832444
68	28310	2	0.999916286551
68	28330	2.25	0.999916286551
68	43515	2.5	0.999898313941
68	54749	2.75	0.999884292842
68	73966	3	0.999873269886
68	81665	3.25	0.999873269886
68	94696	3.5	0.999854676411
68	99205	3.75	0.999849261481
68	113002	4	0.999830295965
68	117760	4.25	0.99982857553
68	126458	4.5	0.999808957436
68	135305	4.75	0.999805314135
68	143816	5	0.999787694167
68	167023	5.25	0.99977779935
68	167043	5.5	0.99977779935
68	190416	5.75	0.999755076763
68	197718	6	0.999744491117
68	197738	6.25	0.999744491117
68	197758	6.5	0.999744491117
68	197778	6.75	0.999744491117
68	205547	7	0.999702796593
68	211333	7.25	0.999700304439
68	214905	7.5	0.999681879869
68	226545	7.75	0.999677369085
68	239064	8	0.999660236728
68	239084	8.25	0.999660236728
68	239104	8.5	0.999660236728
68	253715	8.75	0.999630086918
68	253755	9	0.999617961184
68	253775	9.25	0.999617961184
68	253795	9.5	0.999617961184
68	282680	9.75	0.999586737041
68	282720	10	0.999575561876
68	282740	10.25	0.999575561876
68	282760	10.5	0.999575561876
68	282780	10.75	0.999575561876
68	282820	11	0.999534015983
68	282840	11.25	0.999534015983
68	282860	11.5	0.999534015983
68	282880	11.75	0.999534015983
68	282920	12	0.999492470089
68	282940	12.25	0.999492470089
68	282960	12.5	0.999492470089
68	282980	12.75	0.999492470089
68	283020	13	0.999450924195
68	283040	13.25	0.999450924195
68	283060	13.5	0.999450924195
68	283080	13.75	0.999450924195
68	283120	14	0.999409378301
68	283140	14.25	0.999409378301
68	283160	14.5	0.999409378301
68	283180	14.75	0.999409378301
74	0	0	1
74	73	0.25	1
74	93	0.5	1
74	26316	0.75	0.999968410847
74	26356	1	0.999957648572
74	26376	1.25	0.999957648572
74	26396	1.5	0.999957648572
74	26416	1.75	0.999957648572
74	28311	2	0.999915934949
74	28331	2.25	0.999915934949
74	43516	2.5	0.999895629529
74	54750	2.75	0.999884530798
74	73967	3	0.999873037814
74	81666	3.25	0.99986462411
74	94697	3.5	0.99986462411
74	99206	3.75	0.99984885591
74	113003	4	0.999830749358
74	117761	4.25	0.999829137101
74	126459	4.5	0.999810194485
74	135306	4.75	0.999806561121
74	143817	5	0.999788689437
74	167024	5.25	0.999780454023
74	167044	5.5	0.999780454023
74	190417	5.75	0.999756828728
74	197719	6	0.999746116386
74	197739	6.25	0.999746116386
74	197759	6.5	0.999746116386
74	197779	6.75	0.999746116386
74	205548	7	0.999704201531
74	211334	7.25	0.99970156017
74	214906	7.5	0.999683104943
74	226546	7.75	0.999678455713
74	239065	8	0.999662031814
74	239085	8.25	0.999662031814
74	239105	8.5	0.999662031814
74	253716	8.75	0.999662031814
74	253756	9	0.999620485921
74	253776	9.25	0.999620485921
74	253796	9.5	0.999620485921
74	282681	9.75	0.999589363329
74	282721	10	0.999578224143
74	282741	10.25	0.999578224143
74	282761	10.5	0.999578224143
74	282781	10.75	0.999578224143
74	282821	11	0.999536678249
74	282841	11.25	0.999536678249
74	282861	11.5	0.999536678249
74	282881	11.75	0.999536678249
74	282921	12	0.999495132355
74	282941	12.25	0.999495132355
74	282961	12.5	0.999495132355
74	282981	12.75	0.999495132355
74	283021	13	0.999453586462
74	283041	13.25	0.999453586462
74	283061	13.5	0.999453586462
74	283081	13.75	0.999453586462
74	283121	14	0.999412040568
74	283141	14.25	0.999412040568
74	283161	14.5	0.999412040568
74	283181	14.75	0.999412040568
80	0	0	1
80	74	0.25	1
80	94	0.5	1
80	26317	0.75	0.999968596377
80	26357	1	0.999957834102
80	26377	1.25	0.999957834102
80	26397	1.5	0.999957834102
80	26417	1.75	0.999957834102
80	28312	2	0.999916288209
80	28332	2.25	0.999916288209
80	43517	2.5	0.999898466339
80	54751	2.75	0.999884458046
80	73968	3	0.999873802365
80	81667	3.25	0.999873802365
80	94698	3.5	0.99985520889
80	99207	3.75	0.99985520889
80	113004	4	0.999830981026
80	117762	4.25	0.999829228349
80	126460	4.5	0.999809626149
80	135307	4.75	0.999805954149
80	143818	5	0.999788353118
80	167025	5.25	0.999778030237
80	167045	5.5	0.999778030237
80	190418	5.75	0.99975547605
80	197720	6	0.999745006137
80	197740	6.25	0.999745006137
80	197760	6.5	0.999745006137
80	197780	6.75	0.999745006137
80	205549	7	0.99970341079
80	211335	7.25	0.999700972039
80	214907	7.5	0.999682568245
80	226547	7.75	0.999678241234
80	239066	8	0.999661056004
80	239086	8.25	0.999661056004
80	239106	8.5	0.999661056004
80	253717	8.75	0.999631277925
80	253757	9	0.999619152191
80	253777	9.25	0.999619152191
80	253797	9.5	0.999619152191
80	282682	9.75	0.999587939731
80	282722	10	0.999576764566
80	282742	10.25	0.999576764566
80	282762	10.5	0.999576764566
80	282782	10.75	0.999576764566
80	282822	11	0.999535218672
80	282842	11.25	0.999535218672
80	282862	11.5	0.999535218672
80	282882	11.75	0.999535218672
80	282922	12	0.999493672779
80	282942	12.25	0.999493672779
80	282962	12.5	0.999493672779
80	282982	12.75	0.999493672779
80	283022	13	0.999452126885
80	283042	13.25	0.999452126885
80	283062	13.5	0.999452126885
80	283082	13.75	0.999452126885
80	283122	14	0.999410580991
80	283142	14.25	0.999410580991
80	283162	14.5	0.999410580991
80	283182	14.75	0.999410580991
86	0	0	1
86	75	0.25	1
86	95	0.5	1
86	26318	0.75	0.999968581119
86	26358	1	0.999957818844
86	26378	1.25	0.999957818844
86	26398	1.5	0.999957818844
86	26418	1.75	0.999957818844
86	28313	2	0.999916105221
86	28333	2.25	0.999916105221
86	43518	2.5	0.999897069318
86	54752	2.75	0.999884170044
86	73969	3	0.999873501376
86	81668	3.25	0.999865181716
86	94699	3.5	0.999854586175
86	99208	3.75	0.999854586175
86	113005	4	0.999830342121
86	117763	4.25	0.999828563447
86	126461	4.5	0.999808950483
86	135308	4.75	0.999805232413
86	143819	5	0.99978758009
86	167026	5.25	0.999777168342
86	167046	5.5	0.999777168342
86	190419	5.75	0.999754828772
86	197721	6	0.99974435886
86	197741	6.25	0.99974435886
86	197761	6.5	0.99974435886
86	197781	6.75	0.99974435886
86	205550	7	0.999702763513
86	211336	7.25	0.999700324761
86	214908	7.5	0.999681878734
86	226548	7.75	0.999677517667
86	239067	8	0.999660259235
86	239087	8.25	0.999660259235
86	239107	8.5	0.999660259235
86	253718	8.75	0.999630228219
86	253758	9	0.999618102485
86	253778	9.25	0.999618102485
86	253798	9.5	0.999618102485
86	282683	9.75	0.999586971834
86	282723	10	0.999575796669
86	282743	10.25	0.999575796669
86	282763	10.5	0.999575796669
86	282783	10.75	0.999575796669
86	282823	11	0.999534250775
86	282843	11.25	0.999534250775
86	282863	11.5	0.999534250775
86	282883	11.75	0.999534250775
86	282923	12	0.999492704881
86	282943	12.25	0.999492704881
86	282963	12.5	0.999492704881
86	282983	12.75	0.999492704881
86	283023	13	0.999451158987
86	283043	13.25	0.999451158987
86	283063	13.5	0.999451158987
86	283083	13.75	0.999451158987
86	283123	14	0.999409613094
86	283143	14.25	0.999409613094
86	283163	14.5	0.999409613094
86	283183	14.75	0.999409613094
92	0	0	1
92	76	0.25	1
92	96	0.5	1
92	26319	0.75	0.999968410847
92	26359	1	0.999957648572
92	26379	1.25	0.999957648572
92	26399	1.5	0.999957648572
92	26419	1.75	0.999957648572
92	28314	2	0.999915934949
92	28334	2.25	0.999915934949
92	43519	2.5	0.999896000876
92	54753	2.75	0.999884902145
92	73970	3	0.999873395948
92	81669	3.25	0.999864997683
92	94700	3.5	0.999864997683
92	99209	3.75	0.999849229482
92	113006	4	0.999831122931
92	117764	4.25	0.999829510674
92	126462	4.5	0.999810568058
92	135309	4.75	0.999806934694
92	143820	5	0.999789037398
92	167027	5.25	0.999780827596
92	167047	5.5	0.999780827596
92	190420	5.75	0.999757125466
92	197722	6	0.999746464348
92	197742	6.25	0.999746464348
92	197762	6.5	0.999746464348
92	197782	6.75	0.999746464348
92	205551	7	0.999704539367
92	211337	7.25	0.999701904182
92	214909	7.5	0.99968336994
92	226549	7.75	0.99967845415
92	239068	8	0.999662030251
92	239088	8.25	0.999662030251
92	239108	8.5	0.999662030251
92	253719	8.75	0.999662030251
92	253759	9	0.999620484357
92	253779	9.25	0.999620484357
92	253799	9.5	0.999620484357
92	282684	9.75	0.999589247876
92	282724	10	0.99957810869
92	282744	10.25	0.99957810869
92	282764	10.5	0.99957810869
92	282784	10.75	0.99957810869
92	282824	11	0.999536562796
92	282844	11.25	0.999536562796
92	282864	11.5	0.999536562796
92	282884	11.75	0.999536562796
92	282924	12	0.999495016902
92	282944	12.25	0.999495016902
92	282964	12.5	0.999495016902
92	282984	12.75	0.999495016902
92	283024	13	0.999453471009
92	283044	13.25	0.999453471009
92	283064	13.5	0.999453471009
92	283084	13.75	0.999453471009
92	283124	14	0.999411925115
92	283144	14.25	0.999411925115
92	283164	14.5	0.999411925115
92	283184	14.75	0.999411925115
98	0	0	1
98	77	0.25	1
98	97	0.5	1
98	26320	0.75	0.999968448356
98	26360	1	0.999957686081
98	26380	1.25	0.999957686081
98	26400	1.5	0.999957686081
98	26420	1.75	0.999957686081
98	28315	2	0.999916063898
98	28335	2.25	0.999916063898
98	43520	2.5	0.999895772715
98	54754	2.75	0.999884673984
98	73971	3	0.999873177505
98	81670	3.25	0.999864705266
98	94701	3.5	0.999864705266
98	99210	3.75	0.999849057923
98	113007	4	0.999830951372
98	117765	4.25	0.999829339114
98	126463	4.5	0.999810396499
98	135310	4.75	0.999806763134
98	143821	5	0.999788760305
98	167028	5.25	0.99978052489
98	167048	5.5	0.99978052489
98	190421	5.75	0.999756851914
98	197723	6	0.999746165184
98	197743	6.25	0.999746165184
98	197763	6.5	0.999746165184
98	197783	6.75	0.999746165184
98	205552	7	0.999704442046
98	211338	7.25	0.999701943963
98	214910	7.5	0.999683403546
98	226550	7.75	0.999678462144
98	239069	8	0.999662038245
98	239089	8.25	0.999662038245
98	239109	8.5	0.999662038245
98	253720	8.75	0.999662038245
98	253760	9	0.999620492352
98	253780	9.25	0.999620492352
98	253800	9.5	0.999620492352
98	282685	9.75	0.99958937639
98	282725	10	0.999578237204
98	282745	10.25	0.999578237204
98	282765	10.5	0.999578237204
98	282785	10.75	0.999578237204
98	282825	11	0.99953669131
98	282845	11.25	0.99953669131
98	282865	11.5	0.99953669131
98	282885	11.75	0.99953669131
98	282925	12	0.999495145416
98	282945	12.25	0.999495145416
98	282965	12.5	0.999495145416
98	282985	12.75	0.999495145416
98	283025	13	0.999453599523
98	283045	13.25	0.999453599523