version 2
run Two-0-20090819-12:02:08-12242
attr configname Two
attr datetime 20090819-12:02:08
attr experiment Two
attr inifile omnetpp.ini
attr iterationvars ""
attr iterationvars2 $repetition=0
attr measurement ""
attr network sim
attr processid 12242
attr repetition 0
attr replication #0
attr resultdir results
attr runnumber 0
attr seedset 0

vector 2  sim.host[0].batteryStats  capacity(relative)  ETV
vector 7  sim.host[1].batteryStats  capacity(relative)  ETV
2	0	0.666666666667
2	0	0.666666666667
2	1	0.6665
2	2	0.666333333333
2	3	0.666166666667
2	4	0.666
2	4.79808200113	0.665866986333
2	4.79893800113	0.665866672466
2	5	0.665833162133
2	6	0.665666495467
2	7	0.6654998288
2	8	0.665333162133
2	9	0.665166495467
2	10	0.6649998288
2	10	0.6649998288
7	0	0.666666666667
7	0	0.666666666667
7	1	0.6665
7	2	0.666333333333
7	2.8797406746	0.666186709888
7	2.8805966746	0.666186396021
7	3	0.666166495467
7	4	0.6659998288
7	5	0.665833162133
7	6	0.665666495467
7	7	0.6654998288
7	8	0.665333162133
7	9	0.665166495467
7	10	0.6649998288
