version 2
run Three-0-20090819-12:04:26-12290
attr configname Three
attr datetime 20090819-12:04:26
attr experiment Three
attr inifile omnetpp.ini
attr iterationvars ""
attr iterationvars2 $repetition=0
attr measurement ""
attr network sim
attr processid 12290
attr repetition 0
attr replication #0
attr resultdir results
attr runnumber 0
attr seedset 0

vector 2  sim.host[0].batteryStats  capacity(relative)  ETV
vector 7  sim.host[1].batteryStats  capacity(relative)  ETV
2	0	0.666666666667
2	0	0.666666666667
2	1	0.6665
2	2	0.666333333333
2	2.8797406746	0.666186709888
2	2.8805966746	0.666186510154
2	3	0.6661666096
2	4	0.665999942933
2	4.79808200113	0.665866929266
2	4.79893800113	0.6658666154
2	5	0.665833105067
2	6	0.6656664384
2	7	0.665499771733
2	8	0.665333105067
2	9	0.6651664384
2	10	0.664999771733
2	10	0.664999771733
7	0	0.666666666667
7	0	0.666666666667
7	1	0.6665
7	2	0.666333333333
7	2.8797406746	0.666186709888
7	2.8805966746	0.666186396021
7	3	0.666166495467
7	4	0.6659998288
7	4.79808200113	0.665866815133
7	4.79893800113	0.6658666154
7	5	0.665833105067
7	6	0.6656664384
7	7	0.665499771733
7	8	0.665333105067
7	9	0.6651664384
7	10	0.664999771733