version 2
run Five-0-20110329-15:17:52-9091
attr configname Five
attr datetime 20110329-15:17:52
attr experiment Five
attr inifile omnetpp.ini
attr iterationvars ""
attr iterationvars2 $repetition=0
attr measurement ""
attr network sim
attr processid 9091
attr repetition 0
attr replication #0
attr resultdir results
attr runnumber 0
attr seedset 0

vector 2  sim.host[0].batteryStats  capacity(relative)  ETV
vector 8  sim.host[1].batteryStats  capacity(relative)  ETV
vector 14  sim.host[2].batteryStats  capacity(relative)  ETV
2	0	0	1
2	0	0	1
2	10	1	0.998611111111
2	13	2	0.997222222222
2	222	2.960980196505	0.995887527505
2	228	2.961836196505	0.995483305283
2	240	2.962560196505	0.995482299727
2	248	2.963416196505	0.995078077505
2	261	2.963466196505	0.99507800806
2	267	2.963738196505	0.994949563616
2	276	2.963748196505	0.994949549727
2	282	2.963996196505	0.994832438616
2	291	2.964006196505	0.994832424727
2	297	2.964862196505	0.994428202505
2	308	2.964872196505	0.994428188616
2	315	2.965120196505	0.994311077505
2	326	2.965790196505	0.994310146949
2	334	2.966646196505	0.993905924727
2	344	2.966696196505	0.993905855283
2	351	2.966968196505	0.993747188616
2	362	2.966978196505	0.993747174727
2	368	2.967226196505	0.993630063616
2	374	2.967236196505	0.993630049727
2	383	2.968092196505	0.993130716394
2	396	2.968102196505	0.993130702505
2	403	2.968350196505	0.993013591394
2	415	2.968431826663	0.993013478019
2	422	2.968703826663	0.992885033574
2	431	2.968713826663	0.992885019685
2	439	2.968961826663	0.992767908574
2	448	2.968971826663	0.992767894685
2	454	2.969827826663	0.992363672463
2	465	2.969837826663	0.992363658574
2	472	2.970085826663	0.992246547463
2	482	2.970375826663	0.992246144685
2	490	2.971231826663	0.991841922463
2	504	2.971521826663	0.991841519685
2	511	2.971793826663	0.991713075241
2	520	2.971803826663	0.991713061352
2	526	2.972051826663	0.991595950241
2	535	2.972061826663	0.991595936352
2	541	2.972917826663	0.99119171413
2	552	2.972927826663	0.991191700241
2	561	2.973175826663	0.99107458913
2	568	2.973245826663	0.991074491907
2	576	2.973517826663	0.990915825241
2	587	2.973527826663	0.990915811352
2	593	2.973775826663	0.990798700241
2	599	2.973785826663	0.990798686352
2	606	2.974641826663	0.990299353019
2	619	2.974651826663	0.99029933913
2	626	2.974899826663	0.990182228019
2	633	2.974989826663	0.990182103019
2	641	2.975261826663	0.990023436352
2	652	2.975271826663	0.990023422463
2	658	2.975519826663	0.989906311352
2	664	2.975529826663	0.989906297463
2	671	2.976385826663	0.98940696413
2	684	2.976395826663	0.989406950241
2	691	2.976643826663	0.98928983913
2	705	2.977313826663	0.989288908574
2	711	2.978169826663	0.988884686352
2	723	2.978619826663	0.988884061352
2	731	2.979475826663	0.98847983913
2	744	2.979525826663	0.988479769685
2	752	2.979797826663	0.988351325241
2	761	2.979807826663	0.988351311352
2	767	2.980055826663	0.988234200241
2	776	2.980065826663	0.988234186352
2	782	2.980921826663	0.98782996413
2	793	2.980931826663	0.987829950241
2	800	2.981179826663	0.98771283913
2	807	2.981229826663	0.987712769685
2	815	2.981501826663	0.987554103019
2	826	2.981511826663	0.98755408913
2	832	2.981759826663	0.987436978019
2	838	2.981769826663	0.98743696413
2	845	2.982625826663	0.986937630796
2	858	2.982635826663	0.986937616907
2	865	2.982883826663	0.986820505796
2	874	2.983413826663	0.986819769685
2	882	2.983685826663	0.986661103019
2	893	2.983695826663	0.98666108913
2	899	2.983943826663	0.986543978019
2	905	2.983953826663	0.98654396413
2	916	2.984809826663	0.986044630796
2	929	2.984819826663	0.986044616907
2	938	2.985067826663	0.985927505796
2	948	2.985217826663	0.985927297463
2	955	2.985489826663	0.985798853019
2	964	2.985499826663	0.98579883913
2	970	2.985747826663	0.985681728019
2	979	2.985757826663	0.98568171413
2	985	2.986613826663	0.985277491907
2	996	2.986623826663	0.985277478019
2	1003	2.986871826663	0.985160366907
2	1013	2.987041826663	0.985160130796
2	1021	2.987897826663	0.984755908574
2	1039	2.987967826663	0.984755811352
2	1055	2.988823826663	0.98435158913
2	1062	2.989173826663	0.984351103019
2	1070	2.989445826663	0.984192436352
2	1081	2.989455826663	0.984192422463
2	1087	2.989703826663	0.984075311352
2	1093	2.989713826663	0.984075297463
2	1102	2.990569826663	0.98357596413
2	1115	2.990579826663	0.983575950241
2	1122	2.990827826663	0.98345883913
2	1134	2.991397826663	0.983458047463
2	1140	2.991669826663	0.983329603019
2	1149	2.991679826663	0.98332958913
2	1155	2.991927826663	0.983212478019
2	1164	2.991937826663	0.98321246413
2	1172	2.992793826663	0.982808241907
2	1183	2.992803826663	0.982808228019
2	1190	2.993051826663	0.982691116907
2	1197	2.993101826663	0.982691047463
2	1207	2.993373826663	0.982532380796
2	1218	2.993383826663	0.982532366907
2	1224	2.993631826663	0.982415255796
2	1230	2.993641826663	0.982415241907
2	1237	2.994497826663	0.981915908574
2	1250	2.994507826663	0.981915894685
2	1257	2.994755826663	0.981798783574
2	1264	2.994825826663	0.981798686352
2	1272	2.995097826663	0.981640019685
2	1283	2.995107826663	0.981640005796
2	1289	2.995355826663	0.981522894685
2	1295	2.995365826663	0.981522880796
2	1302	2.996221826663	0.981023547463
2	1315	2.996231826663	0.981023533574
2	1322	2.996479826663	0.980906422463
2	1332	2.996709826663	0.980906103019
2	1339	2.996981826663	0.980777658574
2	1348	2.996991826663	0.980777644685
2	1354	2.997239826663	0.980660533574
2	1363	2.997249826663	0.980660519685
2	1369	2.998105826663	0.980256297463
2	1380	2.998115826663	0.980256283574
2	1387	2.998363826663	0.980139172463
2	1399	2.998793826663	0.980138575241
2	1406	2.999649826663	0.979734353019
2	1418	2.999999826663	0.979733866907
2	1420	3	0.979733785054
2	1427	3.000855826663	0.979329644685
2	1439	3.001085826663	0.979329325241
2	1445	3.001941826663	0.978925103019
2	1457	3.002431826663	0.978924422463
2	1465	3.003287826663	0.978520200241
2	1478	3.003417826663	0.978520019685
2	1485	3.004273826663	0.978115797463
2	1498	3.004343826663	0.978115700241
2	1504	3.004615826663	0.977987255796
2	1513	3.004625826663	0.977987241907
2	1519	3.004873826663	0.977870130796
2	1528	3.004883826663	0.977870116907
2	1536	3.005739826663	0.977465894685
2	1547	3.005749826663	0.977465880796
2	1554	3.005997826663	0.977348769685
2	1563	3.006547826663	0.977348005796
2	1572	3.007403826663	0.976943783574
2	1583	3.007453826663	0.97694371413
2	1591	3.007725826663	0.976785047463
2	1602	3.007735826663	0.976785033574
2	1608	3.007983826663	0.976667922463
2	1614	3.007993826663	0.976667908574
2	1623	3.008849826663	0.976168575241
2	1636	3.008859826663	0.976168561352
2	1645	3.009107826663	0.976051450241
2	1655	3.009217826663	0.976051297463
2	1666	3.009489826663	0.975922853019
2	1675	3.009499826663	0.97592283913
2	1683	3.009747826663	0.975805728019
2	1692	3.009757826663	0.97580571413
2	1698	3.010613826663	0.975401491907
2	1709	3.010623826663	0.975401478019
2	1718	3.010871826663	0.975284366907
2	1728	3.011061826663	0.975284103019
2	1736	3.011917826663	0.974879880796
2	1747	3.012067826663	0.974879672463
2	1755	3.012339826663	0.974721005796
2	1766	3.012349826663	0.974720991907
2	1772	3.012597826663	0.974603880796
2	1778	3.012607826663	0.974603866907
2	1787	3.013463826663	0.974104533574
2	1800	3.013473826663	0.974104519685
2	1807	3.013721826663	0.973987408574
2	1817	3.013791826663	0.973987311352
2	1827	3.014647826663	0.97358308913
2	1843	3.014857826663	0.973582797463
2	1850	3.015129826663	0.973454353019
2	1859	3.015139826663	0.97345433913
2	1865	3.015387826663	0.973337228019
2	1874	3.015397826663	0.97333721413
2	1882	3.016253826663	0.972932991907
2	1893	3.016263826663	0.972932978019
2	1900	3.016511826663	0.972815866907
2	1907	3.016581826663	0.972815769685
2	1915	3.016853826663	0.972657103019
2	1926	3.016863826663	0.97265708913
2	1932	3.017111826663	0.972539978019
2	1938	3.017121826663	0.97253996413
2	1947	3.017977826663	0.972040630796
2	1960	3.017987826663	0.972040616907
2	1967	3.018235826663	0.971923505796
2	1977	3.018445826663	0.97192321413
2	1985	3.019301826663	0.971518991907
2	1999	3.019551826663	0.971518644685
2	2008	3.019823826663	0.971390200241
2	2017	3.019833826663	0.971390186352
2	2023	3.020081826663	0.971273075241
2	2032	3.020091826663	0.971273061352
2	2038	3.020947826663	0.97086883913
2	2049	3.020957826663	0.970868825241
2	2058	3.021205826663	0.97075171413
2	2065	3.021395826663	0.970751450241
2	2073	3.021667826663	0.970592783574
2	2084	3.021677826663	0.970592769685
2	2090	3.021925826663	0.970475658574
2	2096	3.021935826663	0.970475644685
2	2103	3.022791826663	0.969976311352
2	2116	3.022801826663	0.969976297463
2	2123	3.023049826663	0.969859186352
2	2133	3.023159826663	0.969859033574
2	2140	3.023431826663	0.96973058913
2	2149	3.023441826663	0.969730575241
2	2155	3.023689826663	0.96961346413
2	2164	3.023699826663	0.969613450241
2	2170	3.024555826663	0.969209228019
2	2181	3.024565826663	0.96920921413
2	2188	3.024813826663	0.969092103019
2	2198	3.024963826663	0.969091894685
2	2206	3.025819826663	0.968687672463
2	2219	3.026029826663	0.968687380796
2	2227	3.026301826663	0.96852871413
2	2238	3.026311826663	0.968528700241
2	2244	3.026559826663	0.96841158913
2	2250	3.026569826663	0.968411575241
2	2259	3.027425826663	0.967912241907
2	2272	3.027435826663	0.967912228019
2	2279	3.027683826663	0.967795116907
2	2289	3.027793826663	0.96779496413
2	2299	3.028649826663	0.967390741907
2	2313	3.028779826663	0.967390561352
2	2321	3.029635826663	0.96698633913
2	2335	3.029765826663	0.966986158574
2	2344	3.030037826663	0.96685771413
2	2353	3.030047826663	0.966857700241
2	2359	3.030295826663	0.96674058913
2	2368	3.030305826663	0.966740575241
2	2374	3.031161826663	0.966336353019
2	2385	3.031171826663	0.96633633913
2	2392	3.031419826663	0.966219228019
2	2399	3.031509826663	0.966219103019
2	2409	3.031781826663	0.966060436352
2	2420	3.031791826663	0.966060422463
2	2426	3.032039826663	0.965943311352
2	2432	3.032049826663	0.965943297463
2	2441	3.032905826663	0.96544396413
2	2454	3.032915826663	0.965443950241
2	2461	3.033163826663	0.96532683913
2	2474	3.033413826663	0.965326491907
2	2483	3.033685826663	0.965167825241
2	2501	3.034519826663	0.965166666907
2	2509	3.035375826663	0.964762444685
2	2520	3.035665826663	0.964762041907
2	2528	3.035937826663	0.964603375241
2	2539	3.035947826663	0.964603361352
2	2547	3.036195826663	0.964486250241
2	2553	3.036205826663	0.964486236352
2	2560	3.037061826663	0.963986903019
2	2573	3.037071826663	0.96398688913
2	2580	3.037319826663	0.963869778019
2	2590	3.037409826663	0.963869653019
2	2597	3.037681826663	0.963741208574
2	2606	3.037691826663	0.963741194685
2	2612	3.037939826663	0.963624083574
2	2621	3.037949826663	0.963624069685
2	2627	3.038805826663	0.963219847463
2	2638	3.038815826663	0.963219833574
2	2645	3.039063826663	0.963102722463
2	2659	3.039233826663	0.963102486352
2	2675	3.040089826663	0.96269826413
2	2686	3.040259826663	0.962698028019
2	2695	3.040531826663	0.962539361352
2	2710	3.041259827663	0.962538350239
2	2718	3.041531827663	0.962379683573
2	2729	3.041541827663	0.962379669684
2	2735	3.041789827663	0.962262558573
2	2741	3.041799827663	0.962262544684
2	2748	3.042655827663	0.96176321135
2	2761	3.042665827663	0.961763197462
2	2768	3.042913827663	0.96164608635
2	2779	3.042963827663	0.961646016906
2	2788	3.043235827663	0.961487350239
2	2810	3.044049827663	0.961486219684
2	2820	3.044905827663	0.961081997462
2	2831	3.045135827663	0.961081678017
2	2839	3.045407827663	0.96092301135
2	2850	3.045417827663	0.960922997462
2	2856	3.045665827663	0.96080588635
2	2862	3.045675827663	0.960805872462
2	2869	3.046531827663	0.960306539128
2	2882	3.046541827663	0.960306525239
2	2889	3.046789827663	0.960189414128
2	2899	3.046859827663	0.960189316906
2	2906	3.047131827663	0.960060872462
2	2915	3.047141827663	0.960060858573
2	2921	3.047389827663	0.959943747462
2	2930	3.047399827663	0.959943733573
2	2936	3.048255827663	0.95953951135
2	2947	3.048265827663	0.959539497462
2	2954	3.048513827663	0.95942238635
2	2964	3.048883827663	0.959421872462
2	2972	3.049739827663	0.959017650239
2	2986	3.049989827663	0.959017303017
2	2996	3.050845827663	0.958613080795
2	3007	3.050935827663	0.958612955795
2	3015	3.051207827663	0.958454289128
2	3026	3.051217827663	0.958454275239
2	3034	3.051465827663	0.958337164128
2	3040	3.051475827663	0.958337150239
2	3047	3.052331827663	0.957837816906
2	3060	3.052341827663	0.957837803017
2	3067	3.052589827663	0.957720691906
2	3077	3.052699827663	0.957720539128
2	3084	3.052971827663	0.957592094684
2	3093	3.052981827663	0.957592080795
2	3099	3.053229827663	0.957474969684
2	3108	3.053239827663	0.957474955795
2	3116	3.054095827663	0.957070733573
2	3127	3.054105827663	0.957070719684
2	3136	3.054353827663	0.956953608573
2	3143	3.054603827663	0.95695326135
2	3151	3.054875827663	0.956794594684
2	3162	3.054885827663	0.956794580795
2	3168	3.055133827663	0.956677469684
2	3174	3.055143827663	0.956677455795
2	3181	3.055999827663	0.956178122462
2	3194	3.056009827663	0.956178108573
2	3201	3.056257827663	0.956060997462
2	3211	3.056507827663	0.956060650239
2	3218	3.056779827663	0.955932205795
2	3227	3.056789827663	0.955932191906
2	3233	3.057037827663	0.955815080795
2	3242	3.057047827663	0.955815066906
2	3250	3.057903827663	0.955410844684
2	3261	3.057913827663	0.955410830795
2	3268	3.058161827663	0.955293719684
2	3275	3.058411827663	0.955293372462
2	3283	3.058683827663	0.955134705795
2	3294	3.058693827663	0.955134691906
2	3300	3.058941827663	0.955017580795
2	3306	3.058951827663	0.955017566906
2	3315	3.059807827663	0.954518233573
2	3328	3.059817827663	0.954518219684
2	3335	3.060065827663	0.954401108573
2	3342	3.060315827663	0.95440076135
2	3350	3.060587827663	0.954242094684
2	3361	3.060597827663	0.954242080795
2	3367	3.060845827663	0.954124969684
2	3373	3.060855827663	0.954124955795
2	3380	3.061711827663	0.953625622462
2	3393	3.061721827663	0.953625608573
2	3400	3.061969827663	0.953508497462
2	3410	3.062119827663	0.953508289128
2	3417	3.062391827663	0.953379844684
2	3426	3.062401827663	0.953379830795
2	3432	3.062649827663	0.953262719684
2	3441	3.062659827663	0.953262705795
2	3447	3.063515827663	0.952858483573
2	3458	3.063525827663	0.952858469684
2	3465	3.063773827663	0.952741358573
2	3475	3.064163827663	0.952740816906
2	3482	3.064435827663	0.952612372462
2	3491	3.064445827663	0.952612358573
2	3497	3.064693827663	0.952495247462
2	3506	3.064703827663	0.952495233573
2	3512	3.065559827663	0.95209101135
2	3523	3.065569827663	0.952090997462
2	3530	3.065817827663	0.95197388635
2	3537	3.065887827663	0.951973789128
2	3550	3.066159827663	0.951815122462
2	3565	3.066169827663	0.951815108573
2	3571	3.066417827663	0.951697997462
2	3577	3.066427827663	0.951697983573
2	3584	3.067283827663	0.951198650239
2	3597	3.067293827663	0.95119863635
2	3604	3.067541827663	0.951081525239
2	3614	3.067591827663	0.951081455795
2	3621	3.067863827663	0.95095301135
2	3630	3.067873827663	0.950952997462
2	3636	3.068121827663	0.95083588635
2	3645	3.068131827663	0.950835872462
2	3651	3.068987827663	0.950431650239
2	3662	3.068997827663	0.95043163635
2	3669	3.069245827663	0.950314525239
2	3679	3.069475827663	0.950314205795
2	3687	3.070331827663	0.949909983573
2	3701	3.070401827663	0.94990988635
2	3709	3.071257827663	0.949505664128
2	3720	3.071447827663	0.949505400239
2	3728	3.071719827663	0.949346733573
2	3739	3.071729827663	0.949346719684
2	3745	3.071977827663	0.949229608573
2	3751	3.071987827663	0.949229594684
2	3758	3.072843827663	0.94873026135
2	3771	3.072853827663	0.948730247462
2	3778	3.073101827663	0.94861313635
2	3785	3.073231827663	0.948612955795
2	3793	3.073503827663	0.948454289128
2	3804	3.073513827663	0.948454275239
2	3810	3.073761827663	0.948337164128
2	3816	3.073771827663	0.948337150239
2	3825	3.074627827663	0.947837816906
2	3838	3.074637827663	0.947837803017
2	3845	3.074885827663	0.947720691906
2	3855	3.074975827663	0.947720566906
2	3862	3.075247827663	0.947592122462
2	3871	3.075257827663	0.947592108573
2	3877	3.075505827663	0.947474997462
2	3886	3.075515827663	0.947474983573
2	3892	3.076371827663	0.94707076135
2	3903	3.076381827663	0.947070747462
2	3910	3.076629827663	0.94695363635
2	3921	3.076859827663	0.946953316906
2	3930	3.077131827663	0.946794650239
2	3947	3.077979828663	0.94679347246
2	3955	3.078251828663	0.946634805794
2	3966	3.078261828663	0.946634791905
2	3972	3.078509828663	0.946517680794
2	3978	3.078519828663	0.946517666905
2	3985	3.079375828663	0.946018333571
2	3998	3.079385828663	0.946018319682
2	4005	3.079633828663	0.945901208571
2	4015	3.079723828663	0.945901083571
2	4024	3.079995828663	0.945772639127
2	4033	3.080005828663	0.945772625238
2	4039	3.080253828663	0.945655514127
2	4048	3.080263828663	0.945655500238
2	4056	3.081119828663	0.945251278016
2	4067	3.081129828663	0.945251264127
2	4074	3.081377828663	0.945134153016
2	4085	3.081787828663	0.945133583571
2	4094	3.082059828663	0.944974916905
2	4112	3.082793828663	0.94497389746
2	4120	3.083649828663	0.944569675238
2	4134	3.083719828663	0.944569578016
2	4141	3.083991828663	0.944441133571
2	4150	3.084001828663	0.944441119682
2	4156	3.084249828663	0.944324008571
2	4165	3.084259828663	0.944323994682
2	4171	3.085115828663	0.94391977246
2	4182	3.085125828663	0.943919758571
2	4189	3.085373828663	0.94380264746
2	4199	3.085603828663	0.943802328016
2	4207	3.086459828663	0.943398105794
2	4221	3.086509828663	0.943398036349
2	4229	3.087365828663	0.942993814127
2	4243	3.087575828663	0.94299352246
2	4252	3.087847828663	0.942865078016
2	4261	3.087857828663	0.942865064127
2	4267	3.088105828663	0.942747953016
2	4276	3.088115828663	0.942747939127
2	4284	3.088971828663	0.942343716905
2	4295	3.088981828663	0.942343703016
2	4302	3.089229828663	0.942226591905
2	4309	3.089299828663	0.942226494682
2	4322	3.089571828663	0.942067828016
2	4337	3.089581828663	0.942067814127
2	4343	3.089829828663	0.941950703016
2	4349	3.089839828663	0.941950689127
2	4358	3.090695828663	0.941451355794
2	4371	3.090705828663	0.941451341905
2	4380	3.090953828663	0.941334230794
2	4390	3.091003828663	0.941334161349
2	4399	3.091275828663	0.941205716905
2	4408	3.091285828663	0.941205703016
2	4414	3.091533828663	0.941088591905
2	4423	3.091543828663	0.941088578016
2	4429	3.092399828663	0.940684355794
2	4440	3.092409828663	0.940684341905
2	4447	3.092657828663	0.940567230794
2	4457	3.092847828663	0.940566966905
2	4465	3.093703828663	0.940162744682
2	4479	3.093973828663	0.940162369682
2	4489	3.094829828663	0.93975814746
2	4505	3.095019828663	0.939757883571
2	4512	3.095291828663	0.939629439127
2	4521	3.095301828663	0.939629425238
2	4527	3.095549828663	0.939512314127
2	4536	3.095559828663	0.939512300238
2	4542	3.096415828663	0.939108078016
2	4553	3.096425828663	0.939108064127
2	4560	3.096673828663	0.938990953016
2	4567	3.096823828663	0.938990744682
2	4575	3.097095828663	0.938832078016
2	4586	3.097105828663	0.938832064127
2	4592	3.097353828663	0.938714953016
2	4598	3.097363828663	0.938714939127
2	4605	3.098219828663	0.938215605794
2	4618	3.098229828663	0.938215591905
2	4625	3.098477828663	0.938098480794
2	4635	3.098567828663	0.938098355794
2	4645	3.099423828663	0.937694133571
2	4659	3.099773828663	0.93769364746
2	4666	3.100045828663	0.937565203016
2	4675	3.100055828663	0.937565189127
2	4683	3.100303828663	0.937448078016
2	4692	3.100313828663	0.937448064127
2	4698	3.101169828663	0.937043841905
2	4709	3.101179828663	0.937043828016
2	4716	3.101427828663	0.936926716905
2	4723	3.101697828663	0.936926341905
2	4735	3.101969828663	0.936767675238
2	4746	3.101979828663	0.936767661349
2	4754	3.102227828663	0.936650550238
2	4760	3.102237828663	0.936650536349
2	4767	3.103093828663	0.936151203016
2	4780	3.103103828663	0.936151189127
2	4787	3.103351828663	0.936034078016
2	4797	3.103581828663	0.936033758571
2	4804	3.103853828663	0.935905314127
2	4813	3.103863828663	0.935905300238
2	4819	3.104111828663	0.935788189127
2	4828	3.104121828663	0.935788175238
2	4834	3.104977828663	0.935383953016
2	4845	3.104987828663	0.935383939127
2	4852	3.105235828663	0.935266828016
2	4862	3.105425828663	0.935266564127
2	4869	3.105697828663	0.935138119682
2	4878	3.105707828663	0.935138105794
2	4884	3.105955828663	0.935020994682
2	4893	3.105965828663	0.935020980794
2	4899	3.106821828663	0.934616758571
2	4910	3.106831828663	0.934616744682
2	4917	3.107079828663	0.934499633571
2	4924	3.107149828663	0.934499536349
2	4932	3.107421828663	0.934340869682
2	4943	3.107431828663	0.934340855794
2	4949	3.107679828663	0.934223744682
2	4955	3.107689828663	0.934223730794
2	4962	3.108545828663	0.93372439746
2	4975	3.108555828663	0.933724383571
2	4982	3.108803828663	0.93360727246
2	4992	3.108893828663	0.93360714746
2	5000	3.109749828663	0.933202925238
2	5014	3.110039828663	0.93320252246
2	5021	3.110311828663	0.933074078016
2	5030	3.110321828663	0.933074064127
2	5036	3.110569828663	0.932956953016
2	5045	3.110579828663	0.932956939127
2	5051	3.111435828663	0.932552716905
2	5062	3.111445828663	0.932552703016
2	5069	3.111693828663	0.932435591905
2	5076	3.111823828663	0.932435411349
2	5084	3.112095828663	0.932276744682
2	5095	3.112105828663	0.932276730794
2	5101	3.112353828663	0.932159619682
2	5107	3.112363828663	0.932159605794
2	5114	3.113219828663	0.93166027246
2	5127	3.113229828663	0.931660258571
2	5134	3.113477828663	0.93154314746
2	5146	3.113767828663	0.931542744682
2	5154	3.114623828663	0.93113852246
2	5165	3.114773828663	0.931138314127
2	5173	3.115045828663	0.93097964746
2	5184	3.115055828663	0.930979633571
2	5190	3.115303828663	0.93086252246
2	5196	3.115313828663	0.930862508571
2	5203	3.116169828663	0.930363175238
2	5216	3.116179828663	0.930363161349
2	5223	3.116427828663	0.930246050238
2	5233	3.116517828663	0.930245925238
2	5242	3.116789828663	0.930117480794
2	5251	3.116799828663	0.930117466905
2	5257	3.117047828663	0.930000355794
2	5266	3.117057828663	0.930000341905
2	5274	3.117913828663	0.929596119682
2	5285	3.117923828663	0.929596105794
2	5292	3.118171828663	0.929478994682
2	5299	3.118441828663	0.929478619682
2	5307	3.118713828663	0.929319953016
2	5318	3.118723828663	0.929319939127
2	5324	3.118971828663	0.929202828016
2	5330	3.118981828663	0.929202814127
2	5337	3.119837828663	0.928703480794
2	5350	3.119847828663	0.928703466905
2	5357	3.120095828663	0.928586355794
2	5367	3.120305828663	0.928586064127
2	5374	3.120577828663	0.928457619682
2	5383	3.120587828663	0.928457605794
2	5389	3.120835828663	0.928340494682
2	5398	3.120845828663	0.928340480794
2	5404	3.121701828663	0.927936258571
2	5415	3.121711828663	0.927936244682
2	5422	3.121959828663	0.927819133571
2	5432	3.122009828663	0.927819064127
2	5440	3.122865828663	0.927414841905
2	5456	3.123161084384	0.927414431827
2	5463	3.123433084384	0.927285987383
2	5472	3.123443084384	0.927285973494
2	5478	3.123691084384	0.927168862383
2	5487	3.123701084384	0.927168848494
2	5495	3.124557084384	0.926764626272
2	5506	3.124567084384	0.926764612383
2	5513	3.124815084384	0.926647501272
2	5523	3.124865084384	0.926647431827
2	5530	3.125137084384	0.926518987383
2	5539	3.125147084384	0.926518973494
2	5545	3.125395084384	0.926401862383
2	5554	3.125405084384	0.926401848494
2	5560	3.126261084384	0.925997626272
2	5571	3.126271084384	0.925997612383
2	5578	3.126519084384	0.925880501272
2	5585	3.126749084384	0.925880181827
2	5593	3.127021084384	0.925721515161
2	5604	3.127031084384	0.925721501272
2	5610	3.127279084384	0.925604390161
2	5616	3.127289084384	0.925604376272
2	5623	3.128145084384	0.925105042938
2	5636	3.128155084384	0.925105029049
2	5643	3.128403084384	0.924987917938
2	5650	3.128573084384	0.924987681827
2	5658	3.128845084384	0.924829015161
2	5669	3.128855084384	0.924829001272
2	5675	3.129103084384	0.924711890161
2	5681	3.129113084384	0.924711876272
2	5688	3.129969084384	0.924212542938
2	5701	3.129979084384	0.924212529049
2	5708	3.130227084384	0.924095417938
2	5718	3.130437084384	0.924095126272
2	5728	3.131293084384	0.923690904049
2	5738	3.131523084384	0.923690584605
2	5745	3.131795084384	0.923531917938
2	5756	3.131805084384	0.923531904049
2	5762	3.132053084384	0.923414792938
2	5768	3.132063084384	0.923414779049
2	5775	3.132919084384	0.922915445716
2	5788	3.132929084384	0.922915431827
2	5797	3.133177084384	0.922798320716
2	5807	3.133267084384	0.922798195716
2	5814	3.133539084384	0.922669751272
2	5823	3.133549084384	0.922669737383
2	5829	3.133797084384	0.922552626272
2	5838	3.133807084384	0.922552612383
2	5846	3.134663084384	0.922148390161
2	5857	3.134673084384	0.922148376272
2	5864	3.134921084384	0.922031265161
2	5874	3.135151084384	0.922030945716
2	5882	3.136007084384	0.921626723494
2	5892	3.136417084384	0.921626154049
2	5899	3.136689084384	0.921467487383
2	5910	3.136699084384	0.921467473494
2	5918	3.136947084384	0.921350362383
2	5924	3.136957084384	0.921350348494
2	5931	3.137813084384	0.920851015161
2	5944	3.137823084384	0.920851001272
2	5951	3.138071084384	0.920733890161
2	5965	3.138441084384	0.920733376272
2	5987	3.139297084384	0.920329154049
2	6001	3.139467084384	0.920328917938
2	6009	3.139739084384	0.920170251272
2	6020	3.139749084384	0.920170237383
2	6026	3.139997084384	0.920053126272
2	6032	3.140007084384	0.920053112383
2	6039	3.140863084384	0.919553779049
2	6052	3.140873084384	0.919553765161
2	6059	3.141121084384	0.919436654049
2	6069	3.141271084384	0.919436445716
2	6077	3.142127084384	0.919032223494
2	6088	3.142437084384	0.919031792938
2	6096	3.142709084384	0.918873126272
2	6107	3.142719084384	0.918873112383
2	6113	3.142967084384	0.918756001272
2	6119	3.142977084384	0.918755987383
2	6126	3.143833084384	0.918256654049
2	6139	3.143843084384	0.918256640161
2	6146	3.144091084384	0.918139529049
2	6156	3.144141084384	0.918139459605
2	6164	3.144997084384	0.917735237383
2	6177	3.145107084384	0.917735084605
2	6184	3.145963084384	0.917330862383
2	6197	3.146373084384	0.917330292938
2	6203	3.146645084384	0.917201848494
2	6212	3.146655084384	0.917201834605
2	6218	3.146903084384	0.917084723494
2	6227	3.146913084384	0.917084709605
2	6235	3.147769084384	0.916680487383
2	6246	3.147779084384	0.916680473494
2	6253	3.148027084384	0.916563362383
2	6263	3.148277084384	0.916563015161
2	6273	3.149133084384	0.916158792938
2	6283	3.149283084384	0.916158584605
2	6290	3.149555084384	0.915999917938
2	6301	3.149565084384	0.915999904049
2	6307	3.149813084384	0.915882792938
2	6313	3.149823084384	0.915882779049
2	6320	3.150679084384	0.915383445716
2	6333	3.150689084384	0.915383431827
2	6342	3.150937084384	0.915266320716
2	6352	3.151047084384	0.915266167938
2	6359	3.151319084384	0.915137723494
2	6368	3.151329084384	0.915137709605
2	6376	3.151577084384	0.915020598494
2	6385	3.151587084384	0.915020584605
2	6393	3.152443084384	0.914616362383
2	6404	3.152453084384	0.914616348494
2	6411	3.152701084384	0.914499237383
2	6421	3.152991084384	0.914498834605
2	6428	3.153263084384	0.914370390161
2	6437	3.153273084384	0.914370376272
2	6443	3.153521084384	0.914253265161
2	6452	3.153531084384	0.914253251272
2	6460	3.154387084384	0.913849029049
2	6471	3.154397084384	0.913849015161
2	6478	3.154645084384	0.913731904049
2	6487	3.154995084384	0.913731417938
2	6495	3.155267084384	0.913572751272
2	6506	3.155277084384	0.913572737383
2	6512	3.155525084384	0.913455626272
2	6518	3.155535084384	0.913455612383
2	6527	3.156391084384	0.912956279049
2	6540	3.156401084384	0.912956265161
2	6547	3.156649084384	0.912839154049
2	6554	3.156939084384	0.912838751272
2	6562	3.157211084384	0.912680084605
2	6573	3.157221084384	0.912680070716
2	6579	3.157469084384	0.912562959605
2	6585	3.157479084384	0.912562945716
2	6594	3.158335084384	0.912063612383
2	6607	3.158345084384	0.912063598494
2	6614	3.158593084384	0.911946487383
2	6624	3.158663084384	0.911946390161
2	6631	3.158935084384	0.911817945716
2	6640	3.158945084384	0.911817931827
2	6646	3.159193084384	0.911700820716
2	6655	3.159203084384	0.911700806827
2	6661	3.160059084384	0.911296584605
2	6672	3.160069084384	0.911296570716
2	6679	3.160317084384	0.911179459605
2	6686	3.160487084384	0.911179223494
2	6694	3.160759084384	0.911020556827
2	6705	3.160769084384	0.911020542938
2	6711	3.161017084384	0.910903431827
2	6717	3.161027084384	0.910903417938
2	6724	3.161883084384	0.910404084605
2	6737	3.161893084384	0.910404070716
2	6744	3.162141084384	0.910286959605
2	6751	3.162191084384	0.910286890161
2	6759	3.162463084384	0.910128223494
2	6770	3.162473084384	0.910128209605
2	6776	3.162721084384	0.910011098494
2	6782	3.162731084384	0.910011084605
2	6789	3.163587084384	0.909511751272
2	6802	3.163597084384	0.909511737383
2	6809	3.163845084384	0.909394626272
2	6819	3.163935084384	0.909394501272
2	6827	3.164791084384	0.908990279049
2	6840	3.164881084384	0.908990154049
2	6846	3.165153084384	0.908861709605
2	6855	3.165163084384	0.908861695716
2	6863	3.165411084384	0.908744584605
2	6872	3.165421084384	0.908744570716
2	6880	3.166277084384	0.908340348494
2	6891	3.166287084384	0.908340334605
2	6898	3.166535084384	0.908223223494
2	6908	3.166865084384	0.908222765161
2	6915	3.167137084384	0.908094320716
2	6924	3.167147084384	0.908094306827
2	6930	3.167395084384	0.907977195716
2	6939	3.167405084384	0.907977181827
2	6945	3.168261084384	0.907572959605
2	6956	3.168271084384	0.907572945716
2	6963	3.168519084384	0.907455834605
2	6976	3.168829084384	0.907455404049
2	6984	3.169101084384	0.907296737383
2	7001	3.169795084384	0.907295773494
2	7008	3.170651084384	0.906891551272
2	7018	3.170821084384	0.906891315161
2	7025	3.171093084384	0.906732648494
2	7036	3.171103084384	0.906732634605
2	7042	3.171351084384	0.906615523494
2	7048	3.171361084384	0.906615509605
2	7055	3.172217084384	0.906116176272
2	7068	3.172227084384	0.906116162383
2	7075	3.172475084384	0.905999051272
2	7084	3.172745084384	0.905998676272
2	7095	3.173601084384	0.905594454049
2	7109	3.173651084384	0.905594384605
2	7116	3.173923084384	0.905465940161
2	7125	3.173933084384	0.905465926272
2	7131	3.174181084384	0.905348815161
2	7140	3.174191084384	0.905348801272
2	7146	3.175047084384	0.904944579049
2	7157	3.175057084384	0.904944565161
2	7164	3.175305084384	0.904827454049
2	7174	3.175455084384	0.904827245716
2	7182	3.176311084384	0.904423023494
2	7192	3.176541084384	0.904422704049
2	7199	3.176813084384	0.904264037383
2	7210	3.176823084384	0.904264023494
2	7216	3.177071084384	0.904146912383