version 2
run Four-0-20110329-15:17:50-9090
attr configname Four
attr datetime 20110329-15:17:50
attr experiment Four
attr inifile omnetpp.ini
attr iterationvars ""
attr iterationvars2 $repetition=0
attr measurement ""
attr network sim
attr processid 9090
attr repetition 0
attr replication #0
attr resultdir results
attr runnumber 0
attr seedset 0

vector 2  sim.host[0].batteryStats  capacity(relative)  ETV
vector 8  sim.host[1].batteryStats  capacity(relative)  ETV
vector 14  sim.host[2].batteryStats  capacity(relative)  ETV
2	0	0	1
2	10	0.1	1
2	13	0.2	1
2	16	0.3	1
2	19	0.4	1
2	22	0.5	1
2	25	0.6	1
2	28	0.7	1
2	31	0.8	1
2	34	0.9	1
2	40	1	0.998611111111
2	43	1.1	0.998611111111
2	46	1.2	0.998611111111
2	49	1.3	0.998611111111
2	52	1.4	0.998611111111
2	55	1.5	0.998611111111
2	58	1.6	0.998611111111
2	61	1.7	0.998611111111
2	64	1.8	0.998611111111
2	67	1.9	0.998611111111
2	73	2	0.997222222222
2	76	2.1	0.997222222222
2	79	2.2	0.997222222222
2	82	2.3	0.997222222222
2	85	2.4	0.997222222222
2	88	2.5	0.997222222222
2	91	2.6	0.997222222222
2	94	2.7	0.997222222222
2	97	2.8	0.997222222222
2	100	2.9	0.997222222222
2	1510	3	0.979733785054
2	4753	3.1	0.93769364746
2	8057	3.2	0.893976676272
2	11319	3.3	0.850959281527
2	14554	3.4	0.808378025439
2	14557	3.5	0.808378025439
2	14560	3.6	0.808378025439
2	14563	3.7	0.808378025439
2	14566	3.8	0.808378025439
2	14569	3.9	0.808378025439
2	14575	4	0.807540744444
2	14578	4.1	0.807540744444
2	14581	4.2	0.807540744444
2	14584	4.3	0.807540744444
2	14587	4.4	0.807540744444
2	14590	4.5	0.807540744444
2	14593	4.6	0.807540744444
2	14596	4.7	0.807540744444
2	14599	4.8	0.807540744444
2	14602	4.9	0.807540744444
2	14608	5	0.806151855556
2	14611	5.1	0.806151855556
2	14614	5.2	0.806151855556
2	14617	5.3	0.806151855556
2	14620	5.4	0.806151855556
2	14623	5.5	0.806151855556
2	14626	5.6	0.806151855556
2	14629	5.7	0.806151855556
2	14632	5.8	0.806151855556
2	14635	5.9	0.806151855556
2	14641	6	0.804762966667
2	14644	6.1	0.804762966667
2	14647	6.2	0.804762966667
2	14650	6.3	0.804762966667
2	14653	6.4	0.804762966667
2	14656	6.5	0.804762966667
2	14659	6.6	0.804762966667
2	14662	6.7	0.804762966667
2	14665	6.8	0.804762966667
2	17753	6.9	0.763044098651
2	21177	7	0.716463331741
2	24346	7.1	0.671988970991
2	27629	7.2	0.627185192287
2	29968	7.3	0.594972345064
2	29971	7.4	0.594972345064
2	29974	7.5	0.594972345064
2	29977	7.6	0.594972345064
2	29980	7.7	0.594972345064
2	30919	7.8	0.583992395714
2	34231	7.9	0.540031034603
2	37530	8	0.496838010573
2	40800	8.1	0.453174414295
2	44044	8.2	0.410473725845
2	45301	8.3	0.393959837205
2	45304	8.4	0.393959837205
2	45307	8.5	0.393959837205
2	45310	8.6	0.393959837205
2	45313	8.7	0.393959837205
2	45316	8.8	0.393959837205
2	45319	8.9	0.393959837205
2	45325	9	0.392900433333
2	45328	9.1	0.392900433333
2	45331	9.2	0.392900433333
2	45334	9.3	0.392900433333
2	45337	9.4	0.392900433333
2	45340	9.5	0.392900433333
2	45343	9.6	0.392900433333
2	45346	9.7	0.392900433333
2	45349	9.8	0.392900433333
2	45352	9.9	0.392900433333
8	0	0	1
8	11	0.1	1
8	14	0.2	1
8	17	0.3	1
8	20	0.4	1
8	23	0.5	1
8	26	0.6	1
8	29	0.7	1
8	32	0.8	1
8	35	0.9	1
8	41	1	0.998611111111
8	44	1.1	0.998611111111
8	47	1.2	0.998611111111
8	50	1.3	0.998611111111
8	53	1.4	0.998611111111
8	56	1.5	0.998611111111
8	59	1.6	0.998611111111
8	62	1.7	0.998611111111
8	65	1.8	0.998611111111
8	68	1.9	0.998611111111
8	74	2	0.997222222222
8	77	2.1	0.997222222222
8	80	2.2	0.997222222222
8	83	2.3	0.997222222222
8	86	2.4	0.997222222222
8	89	2.5	0.997222222222
8	92	2.6	0.997222222222
8	95	2.7	0.997222222222
8	98	2.8	0.997222222222
8	101	2.9	0.997222222222
8	1511	3	0.979053765794
8	4754	3.1	0.933318814127
8	8058	3.2	0.887967765161
8	11320	3.3	0.842988292638
8	14555	3.4	0.798733025439
8	14558	3.5	0.798733025439
8	14561	3.6	0.798733025439
8	14564	3.7	0.798733025439
8	14567	3.8	0.798733025439
8	14570	3.9	0.798733025439
8	14576	4	0.797895744444
8	14579	4.1	0.797895744444
8	14582	4.2	0.797895744444
8	14585	4.3	0.797895744444
8	14588	4.4	0.797895744444
8	14591	4.5	0.797895744444
8	14594	4.6	0.797895744444
8	14597	4.7	0.797895744444
8	14600	4.8	0.797895744444
8	14603	4.9	0.797895744444
8	14609	5	0.796506855556
8	14612	5.1	0.796506855556
8	14615	5.2	0.796506855556
8	14618	5.3	0.796506855556
8	14621	5.4	0.796506855556
8	14624	5.5	0.796506855556
8	14627	5.6	0.796506855556
8	14630	5.7	0.796506855556
8	14633	5.8	0.796506855556
8	14636	5.9	0.796506855556
8	14642	6	0.795117966667
8	14645	6.1	0.795117966667
8	14648	6.2	0.795117966667
8	14651	6.3	0.795117966667
8	14654	6.4	0.795117966667
8	14657	6.5	0.795117966667
8	14660	6.6	0.795117966667
8	14663	6.7	0.795117966667
8	14666	6.8	0.795117966667
8	17754	6.9	0.75546428754
8	21178	7	0.711271568295
8	24347	7.1	0.668818948769
8	27630	7.2	0.626092803398
8	29969	7.3	0.594791956176
8	29972	7.4	0.594791956176
8	29975	7.5	0.594791956176
8	29978	7.6	0.594791956176
8	29981	7.7	0.594791956176
8	30920	7.8	0.583812006825
8	34232	7.9	0.540410945714
8	37531	8	0.496662066128
8	40801	8.1	0.453463658739
8	44045	8.2	0.410518225845
8	45302	8.3	0.394218859427
8	45305	8.4	0.394218859427
8	45308	8.5	0.394218859427
8	45311	8.6	0.394218859427
8	45314	8.7	0.394218859427
8	45317	8.8	0.394218859427
8	45320	8.9	0.394218859427
8	45326	9	0.393159455556
8	45329	9.1	0.393159455556
8	45332	9.2	0.393159455556
8	45335	9.3	0.393159455556
8	45338	9.4	0.393159455556
8	45341	9.5	0.393159455556
8	45344	9.6	0.393159455556
8	45347	9.7	0.393159455556
8	45350	9.8	0.393159455556
8	45353	9.9	0.393159455556
14	0	0	1
14	12	0.1	1
14	15	0.2	1
14	18	0.3	1
14	21	0.4	1
14	24	0.5	1
14	27	0.6	1
14	30	0.7	1
14	33	0.8	1
14	36	0.9	1
14	42	1	0.998611111111
14	45	1.1	0.998611111111
14	48	1.2	0.998611111111
14	51	1.3	0.998611111111
14	54	1.4	0.998611111111
14	57	1.5	0.998611111111
14	60	1.6	0.998611111111
14	63	1.7	0.998611111111
14	66	1.8	0.998611111111
14	69	1.9	0.998611111111
14	75	2	0.997222222222
14	78	2.1	0.997222222222
14	81	2.2	0.997222222222
14	84	2.3	0.997222222222
14	87	2.4	0.997222222222
14	90	2.5	0.997222222222
14	93	2.6	0.997222222222
14	96	2.7	0.997222222222
14	99	2.8	0.997222222222
14	102	2.9	0.997222222222
14	1512	3	0.980103862832
14	4755	3.1	0.937024303016
14	8059	3.2	0.893525042938
14	11321	3.3	0.850297570416
14	14556	3.4	0.80793083655
14	14559	3.5	0.80793083655
14	14562	3.6	0.80793083655
14	14565	3.7	0.80793083655
14	14568	3.8	0.80793083655
14	14571	3.9	0.80793083655
14	14577	4	0.807093555556
14	14580	4.1	0.807093555556
14	14583	4.2	0.807093555556
14	14586	4.3	0.807093555556
14	14589	4.4	0.807093555556
14	14592	4.5	0.807093555556
14	14595	4.6	0.807093555556
14	14598	4.7	0.807093555556
14	14601	4.8	0.807093555556
14	14604	4.9	0.807093555556
14	14610	5	0.805704666667
14	14613	5.1	0.805704666667
14	14616	5.2	0.805704666667
14	14619	5.3	0.805704666667
14	14622	5.4	0.805704666667
14	14625	5.5	0.805704666667
14	14628	5.6	0.805704666667
14	14631	5.7	0.805704666667
14	14634	5.8	0.805704666667
14	14637	5.9	0.805704666667
14	14643	6	0.804315777778
14	14646	6.1	0.804315777778
14	14649	6.2	0.804315777778
14	14652	6.3	0.804315777778
14	14655	6.4	0.804315777778
14	14658	6.5	0.804315777778
14	14661	6.6	0.804315777778
14	14664	6.7	0.804315777778
14	14667	6.8	0.804315777778
14	17755	6.9	0.764417354207
14	21179	7	0.71941811274
14	24348	7.1	0.676971415435
14	27631	7.2	0.633499192287
14	29970	7.3	0.602630578398
14	29973	7.4	0.602630578398
14	29976	7.5	0.602630578398
14	29979	7.6	0.602630578398
14	29982	7.7	0.602630578398
14	30921	7.8	0.590855073492
14	34233	7.9	0.545504379048
14	37532	8	0.500278454431
14	40802	8.1	0.454947903183
14	44046	8.2	0.410417581401
14	45303	8.3	0.39326369276
14	45306	8.4	0.39326369276
14	45309	8.5	0.39326369276
14	45312	8.6	0.39326369276
14	45315	8.7	0.39326369276
14	45318	8.8	0.39326369276
14	45321	8.9	0.39326369276
14	45327	9	0.392204288889
14	45330	9.1	0.392204288889
14	45333	9.2	0.392204288889
14	45336	9.3	0.392204288889
14	45339	9.4	0.392204288889
14	45342	9.5	0.392204288889
14	45345	9.6	0.392204288889
14	45348	9.7	0.392204288889
14	45351	9.8	0.392204288889
14	45354	9.9	0.392204288889
