version 2
run Ten-0-20090826-15:56:42-17500
attr configname Ten
attr datetime 20090826-15:56:42
attr experiment Ten
attr inifile omnetpp.ini
attr iterationvars ""
attr iterationvars2 $repetition=0
attr measurement ""
attr network sim
attr processid 17500
attr repetition 0
attr replication #0
attr resultdir results
attr runnumber 0
attr seedset 0

vector 2  sim.host[0].batteryStats  capacity(relative)  ETV
vector 7  sim.host[1].batteryStats  capacity(relative)  ETV
vector 12  sim.host[2].batteryStats  capacity(relative)  ETV
vector 17  sim.host[3].batteryStats  capacity(relative)  ETV
vector 22  sim.host[4].batteryStats  capacity(relative)  ETV
vector 27  sim.host[5].batteryStats  capacity(relative)  ETV
vector 32  sim.host[6].batteryStats  capacity(relative)  ETV
vector 37  sim.host[7].batteryStats  capacity(relative)  ETV
vector 42  sim.host[8].batteryStats  capacity(relative)  ETV
vector 47  sim.host[9].batteryStats  capacity(relative)  ETV
vector 52  sim.host[10].batteryStats  capacity(relative)  ETV
vector 57  sim.host[11].batteryStats  capacity(relative)  ETV
vector 62  sim.host[12].batteryStats  capacity(relative)  ETV
vector 67  sim.host[13].batteryStats  capacity(relative)  ETV
vector 72  sim.host[14].batteryStats  capacity(relative)  ETV
vector 77  sim.host[15].batteryStats  capacity(relative)  ETV
vector 82  sim.host[16].batteryStats  capacity(relative)  ETV
vector 87  sim.host[17].batteryStats  capacity(relative)  ETV
vector 92  sim.host[18].batteryStats  capacity(relative)  ETV
vector 97  sim.host[19].batteryStats  capacity(relative)  ETV
2	0	0	1
2	61	0.25	1
2	81	0.5	1
2	29736	0.75	0.999967849904
2	66768	1	0.999956233782
2	100453	1.25	0.999944544409
2	116374	1.5	0.99993803768
2	116394	1.75	0.99993803768
2	126940	2	0.999912220299
2	126960	2.25	0.999912220299
2	146259	2.5	0.999890573256
2	183346	2.75	0.999878922349
2	234677	3	0.99986748563
2	286970	3.25	0.999856425193
2	338237	3.5	0.999845211405
2	385528	3.75	0.999833756588
2	422880	4	0.999822281561
2	452063	4.25	0.999810925506
2	481310	4.5	0.999799524193
2	511567	4.75	0.999788059157
2	548038	5	0.999776418747
2	597004	5.25	0.999764597943
2	630137	5.5	0.999753093116
2	663064	5.75	0.999741605985
2	710007	6	0.999730003799
7	0	0	1
7	62	0.25	1
7	82	0.5	1
7	29737	0.75	0.99996774596
7	66769	1	0.99995606703
7	100454	1.25	0.999944630106
7	116375	1.5	0.999938700445
7	116395	1.75	0.999938700445
7	126941	2	0.999912531478
7	126961	2.25	0.999912531478
7	146260	2.5	0.999890894153
7	183347	2.75	0.999879298127
7	234678	3	0.999867556592
7	286971	3.25	0.999855939255
7	338238	3.5	0.999844475919
7	385529	3.75	0.99983319767
7	422881	4	0.999822050921
7	452064	4.25	0.999811657253
7	481311	4.5	0.999801528939
7	511568	4.75	0.999790470351
7	548039	5	0.999779881288
7	597005	5.25	0.99976897362
7	630138	5.5	0.999758430615
7	663065	5.75	0.999747652951
7	710008	6	0.999736104377
12	0	0	1
12	63	0.25	1
12	83	0.5	1
12	29738	0.75	0.999967691649
12	66770	1	0.999955816682
12	100455	1.25	0.999944178861
12	116376	1.5	0.999938054934
12	116396	1.75	0.999938054934
12	126942	2	0.999912402195
12	126962	2.25	0.999912402195
12	146261	2.5	0.99989070965
12	183348	2.75	0.999879181603
12	234679	3	0.999867434679
12	286972	3.25	0.999855946267
12	338239	3.5	0.999844747921
12	385530	3.75	0.999833562037
12	422882	4	0.999822651787
12	452065	4.25	0.999812258118
12	481312	4.5	0.999802129805
12	511569	4.75	0.999791071217
12	548040	5	0.99978028568
12	597006	5.25	0.999768900546
12	630139	5.5	0.999758311495
12	663066	5.75	0.99974753383
12	710009	6	0.999735972904
17	0	0	1
17	64	0.25	1
17	84	0.5	1
17	29739	0.75	0.999968034343
17	66771	1	0.999956518968
17	100456	1.25	0.999945263302
17	116377	1.5	0.999938855533
17	116397	1.75	0.999938855533
17	126943	2	0.999913493511
17	126963	2.25	0.999913493511
17	146262	2.5	0.999892391022
17	183349	2.75	0.999881138123
17	234680	3	0.99986947577
17	286973	3.25	0.999857778472
17	338240	3.5	0.999846117387
17	385531	3.75	0.999834519148
17	422883	4	0.999822868191
17	452066	4.25	0.99981126036
17	481313	4.5	0.999799614699
17	511570	4.75	0.999787931522
17	548041	5	0.999776208128
17	597007	5.25	0.999764628009
17	630140	5.5	0.999752917402
17	663067	5.75	0.999741542872
17	710010	6	0.999730156926
22	0	0	1
22	65	0.25	1
22	85	0.5	1
22	29740	0.75	0.999968034343
22	66772	1	0.99995653132
22	100457	1.25	0.999945275654
22	116378	1.5	0.999938867885
22	116398	1.75	0.999938867885
22	126944	2	0.999913505863
22	126964	2.25	0.999913505863
22	146263	2.5	0.999892403374
22	183350	2.75	0.999881144299
22	234681	3	0.999869412167
22	286974	3.25	0.999857750897
22	338241	3.5	0.99984609178
22	385532	3.75	0.999834441863
22	422884	4	0.999822758257
22	452067	4.25	0.99981113099
22	481314	4.5	0.999799492301
22	511571	4.75	0.999788072415
22	548042	5	0.999776950984
22	597008	5.25	0.99976569151
22	630141	5.5	0.999754144608
22	663068	5.75	0.999742625853
22	710011	6	0.999730983251
27	0	0	1
27	66	0.25	1
27	86	0.5	1
27	29741	0.75	0.999968109361
27	66773	1	0.999956641214
27	100458	1.25	0.999945597887
27	116379	1.5	0.999939486378
27	116399	1.75	0.999939486378
27	126945	2	0.999914124356
27	126965	2.25	0.999914124356
27	146264	2.5	0.999893021867
27	183351	2.75	0.99988175473
27	234682	3	0.99987001288
27	286975	3.25	0.99985838694
27	338242	3.5	0.999846727368
27	385533	3.75	0.999835058469
27	422885	4	0.999823549785
27	452068	4.25	0.999812453278
27	481315	4.5	0.999801339082
27	511572	4.75	0.999790021551
27	548043	5	0.999778457048
27	597009	5.25	0.999766953265
27	630142	5.5	0.999755292517
27	663069	5.75	0.999743812043
27	710012	6	0.999732161264
32	0	0	1
32	67	0.25	1
32	87	0.5	1
32	29742	0.75	0.99996801389
32	66774	1	0.999956475413
32	100459	1.25	0.999945198861
32	116380	1.5	0.999939084403
32	116400	1.75	0.999939084403
32	126946	2	0.999913589784
32	126966	2.25	0.999913589784
32	146265	2.5	0.99989207132
32	183352	2.75	0.999880586799
32	234683	3	0.999869318723
32	286976	3.25	0.999858351078
32	338243	3.5	0.99984725086
32	385534	3.75	0.999839927194
32	422886	4	0.999825638017
32	452069	4.25	0.999815244348
32	481316	4.5	0.999805124421
32	511573	4.75	0.999794069188
32	548044	5	0.999783136158
32	597010	5.25	0.999771356817
32	630143	5.5	0.999760817947
32	663070	5.75	0.99975017874
32	710013	6	0.999739460844
37	0	0	1
37	68	0.25	1
37	88	0.5	1
37	29743	0.75	0.999967891002
37	66775	1	0.999956217026
37	100460	1.25	0.999944547497
37	116381	1.5	0.999938040768
37	116401	1.75	0.999938040768
37	126947	2	0.999912223387
37	126967	2.25	0.999912223387
37	146266	2.5	0.999890576752
37	183353	2.75	0.999878949325
37	234684	3	0.99986733128
37	286977	3.25	0.999855832057
37	338244	3.5	0.999844192543
37	385535	3.75	0.999832717315
37	422887	4	0.9998212016
37	452070	4.25	0.999809845544
37	481317	4.5	0.999798430154
37	511574	4.75	0.999786959488
37	548045	5	0.999775319077
37	597011	5.25	0.999763498274
37	630144	5.5	0.999751993446
37	663071	5.75	0.999740588145
37	710014	6	0.999729473557
42	0	0	1
42	69	0.25	1
42	89	0.5	1
42	29744	0.75	0.999967721463
42	66776	1	0.999955955938
42	100461	1.25	0.999944430227
42	116382	1.5	0.999938417002
42	116402	1.75	0.999938417002
42	126948	2	0.99991305498
42	126968	2.25	0.99991305498
42	146267	2.5	0.999891406823
42	183354	2.75	0.999879897033
42	234685	3	0.999868179918
42	286978	3.25	0.999856714053
42	338245	3.5	0.999845733514
42	385536	3.75	0.999834942934
42	422888	4	0.999823956427
42	452071	4.25	0.999813562758
42	481318	4.5	0.999803434444
42	511575	4.75	0.999792375857
42	548046	5	0.999781747467
42	597012	5.25	0.999770720279
42	630145	5.5	0.999760180859
42	663072	5.75	0.999749420381
42	710015	6	0.999738013623
47	0	0	1
47	70	0.25	1
47	90	0.5	1
47	29745	0.75	0.999968388975
47	66777	1	0.999957365506
47	100462	1.25	0.999946309203
47	116383	1.5	0.999940143145
47	116403	1.75	0.999940143145
47	126949	2	0.999913850116
47	126969	2.25	0.999913850116
47	146268	2.5	0.99989220616
47	183355	2.75	0.999880481526
47	234686	3	0.999868587519
47	286979	3.25	0.999856761904
47	338246	3.5	0.99984491768
47	385537	3.75	0.999833016265
47	422889	4	0.99982110361
47	452072	4.25	0.99980936745
47	481319	4.5	0.999797486539
47	511576	4.75	0.99978568543
47	548047	5	0.999773746234
47	597013	5.25	0.999761877595
47	630146	5.5	0.999749987869
47	663073	5.75	0.999738124483
47	710016	6	0.999726182046
52	0	0	1
52	71	0.25	1
52	91	0.5	1
52	29746	0.75	0.999968283989
52	66778	1	0.9999570985
52	100463	1.25	0.999945989625
52	116384	1.5	0.999939581856
52	116404	1.75	0.999939581856
52	126950	2	0.999914219834
52	126970	2.25	0.999914219834
52	146269	2.5	0.999893400472
52	183356	2.75	0.99988228289
52	234687	3	0.999870603168
52	286980	3.25	0.999858964451
52	338247	3.5	0.999847736019
52	385538	3.75	0.999836758609
52	422890	4	0.999825584635
52	452073	4.25	0.999813945424
52	481320	4.5	0.999802288015
52	511577	4.75	0.99979062958
52	548048	5	0.999778964196
52	597014	5.25	0.999767280111
52	630147	5.5	0.999755535037
52	663074	5.75	0.999743909902
52	710017	6	0.999732415245
57	0	0	1
57	72	0.25	1
57	92	0.5	1
57	29747	0.75	0.999968071398
57	66779	1	0.999956628408
57	100464	1.25	0.999945532881
57	116385	1.5	0.999939521638
57	116405	1.75	0.999939521638
57	126951	2	0.999914159615
57	126971	2.25	0.999914159615
57	146270	2.5	0.999893057127
57	183357	2.75	0.999881813945
57	234688	3	0.99987011755
57	286981	3.25	0.999858420951
57	338248	3.5	0.999846777728
57	385539	3.75	0.999835137936
57	422891	4	0.999823401675
57	452074	4.25	0.999811659156
57	481321	4.5	0.999800015335
57	511578	4.75	0.999788356359
57	548049	5	0.999776744675
57	597015	5.25	0.999765226724
57	630148	5.5	0.99975397438
57	663075	5.75	0.9997424727
57	710018	6	0.999730994656
62	0	0	1
62	73	0.25	1
62	93	0.5	1
62	29748	0.75	0.99996787756
62	66780	1	0.999956268427
62	100465	1.25	0.999944765294
62	116386	1.5	0.999938641367
62	116406	1.75	0.999938641367
62	126952	2	0.999912348338
62	126972	2.25	0.999912348338
62	146271	2.5	0.999890605024
62	183358	2.75	0.999878755833
62	234689	3	0.999867251185
62	286982	3.25	0.999855689653
62	338249	3.5	0.999844058116
62	385540	3.75	0.999832239672
62	422892	4	0.999821579729
62	452075	4.25	0.99981118606
62	481322	4.5	0.999801057747
62	511579	4.75	0.999789999159
62	548050	5	0.999779139876
62	597016	5.25	0.999767831168
62	630149	5.5	0.999757242117
62	663076	5.75	0.999746491357
62	710019	6	0.999734839766
67	0	0	1
67	74	0.25	1
67	94	0.5	1
67	29749	0.75	0.999968283989
67	66781	1	0.9999570985
67	100466	1.25	0.999945989625
67	116387	1.5	0.999939581856
67	116407	1.75	0.999939581856
67	126953	2	0.999914219834
67	126973	2.25	0.999914219834
67	146272	2.5	0.999893400472
67	183359	2.75	0.99988228078
67	234690	3	0.999870651419
67	286983	3.25	0.999859067013
67	338250	3.5	0.999847713246
67	385541	3.75	0.999836071204
67	422893	4	0.999824517824
67	452076	4.25	0.999812854773
67	481323	4.5	0.999801185012
67	511580	4.75	0.999789547103
67	548051	5	0.999777779069
67	597017	5.25	0.999766047506
67	630150	5.5	0.999754323185
67	663077	5.75	0.999742564678
67	710020	6	0.999730913195
72	0	0	1
72	75	0.25	1
72	95	0.5	1
72	29750	0.75	0.999968270841
72	66782	1	0.999957079834
72	100467	1.25	0.99994595965
72	116388	1.5	0.999939551881
72	116408	1.75	0.999939551881
72	126954	2	0.999913332761
72	126974	2.25	0.999913332761
72	146273	2.5	0.99989243554
72	183360	2.75	0.999881148734
72	234691	3	0.999869469256
72	286984	3.25	0.999857821719
72	338251	3.5	0.9998463644
72	385542	3.75	0.999834632896
72	422894	4	0.99982285913
72	452077	4.25	0.999811132139
72	481324	4.5	0.999799384952
72	511581	4.75	0.999787603932
72	548052	5	0.999775772205
72	597018	5.25	0.999764029078
72	630151	5.5	0.999752209315
72	663078	5.75	0.999740637567
72	710021	6	0.999729184057
77	0	0	1
77	76	0.25	1
77	96	0.5	1
77	29751	0.75	0.999967874018
77	66783	1	0.999956215842
77	100468	1.25	0.999944751126
77	116389	1.5	0.999938627199
77	116409	1.75	0.999938627199
77	126955	2	0.99991233417
77	126975	2.25	0.99991233417
77	146274	2.5	0.999891140416
77	183361	2.75	0.99988018654
77	234692	3	0.999868968246
77	286985	3.25	0.999857494772
77	338252	3.5	0.999845759382
77	385543	3.75	0.999833998791
77	422895	4	0.999823016887
77	452078	4.25	0.999812637295
77	481325	4.5	0.999802551213
77	511582	4.75	0.999791492626
77	548053	5	0.999780704001
77	597019	5.25	0.999769318867
77	630152	5.5	0.999758729815
77	663079	5.75	0.999747969337
77	710022	6	0.999736519959
82	0	0	1
82	77	0.25	1
82	97	0.5	1
82	29752	0.75	0.999967854582
82	66784	1	0.999956024209
82	100469	1.25	0.999944789043
82	116390	1.5	0.99993868101
82	116410	1.75	0.99993868101
82	126956	2	0.999912863629
82	126976	2.25	0.999912863629
82	146275	2.5	0.999891219674
82	183362	2.75	0.999879553259
82	234693	3	0.999868014097
82	286986	3.25	0.999856456644
82	338253	3.5	0.999845031993
82	385544	3.75	0.999833745029
82	422896	4	0.999822592289
82	452079	4.25	0.999812198621
82	481326	4.5	0.999802070307
82	511583	4.75	0.999791011719
82	548054	5	0.999780069767
82	597020	5.25	0.999768295012
82	630153	5.5	0.999757784339
82	663080	5.75	0.999747037121
82	710023	6	0.999735587789
87	0	0	1
87	78	0.25	1
87	98	0.5	1
87	29753	0.75	0.999967841048
87	66785	1	0.999956215208
87	100470	1.25	0.999944561165
87	116391	1.5	0.999938054436
87	116411	1.75	0.999938054436
87	126957	2	0.999911761407
87	126977	2.25	0.999911761407
87	146276	2.5	0.999889986305
87	183363	2.75	0.999878146418
87	234694	3	0.999866185295
87	286987	3.25	0.999854273127
87	338254	3.5	0.999842352068
87	385545	3.75	0.999830450653
87	422897	4	0.999818622703
87	452080	4.25	0.999806783834
87	481327	4.5	0.999795027847
87	511584	4.75	0.999783265155
87	548055	5	0.999771436642
87	597021	5.25	0.999759616138
87	630154	5.5	0.999747837715
87	663081	5.75	0.999736181855
87	710024	6	0.999724289779
92	0	0	1
92	79	0.25	1
92	99	0.5	1
92	29754	0.75	0.999968283989
92	66786	1	0.9999570985
92	100471	1.25	0.999945989625
92	116392	1.5	0.999939581856
92	116412	1.75	0.999939581856
92	126958	2	0.999914219834
92	126978	2.25	0.999914219834
92	146277	2.5	0.999893400472
92	183364	2.75	0.99988228289
92	234695	3	0.999870603575
92	286988	3.25	0.999858987336
92	338255	3.5	0.999847367828
92	385546	3.75	0.999835737729
92	422898	4	0.999824003229
92	452081	4.25	0.999812417467
92	481328	4.5	0.999800778945
92	511585	4.75	0.999789031435
92	548056	5	0.999777406491
92	597022	5.25	0.999765687735
92	630155	5.5	0.999753961187
92	663082	5.75	0.999742307353
92	710025	6	0.999730794169
97	0	0	1
97	80	0.25	1
97	100	0.5	1
97	29755	0.75	0.999968283989
97	66787	1	0.9999570985
97	100472	1.25	0.999945989625
97	116393	1.5	0.999939581856
97	116413	1.75	0.999939581856
97	126959	2	0.999914219834
97	126979	2.25	0.999914219834
97	146278	2.5	0.999893400472
97	183365	2.75	0.999882563143
97	234696	3	0.99987150641
97	286989	3.25	0.999860455898
97	338256	3.5	0.99984887508
97	385547	3.75	0.999837225138
97	422899	4	0.999825423949
97	452082	4.25	0.999813741917
97	481329	4.5	0.999802102125
97	511586	4.75	0.999790312657
97	548057	5	0.999778358758
97	597023	5.25	0.999766749893
97	630156	5.5	0.999755109491
97	663083	5.75	0.999743468462
97	710026	6	0.999731896971
