version 2
run Four-0-20090819-12:05:56-12312
attr configname Four
attr datetime 20090819-12:05:56
attr experiment Four
attr inifile omnetpp.ini
attr iterationvars ""
attr iterationvars2 $repetition=0
attr measurement ""
attr network sim
attr processid 12312
attr repetition 0
attr replication #0
attr resultdir results
attr runnumber 0
attr seedset 0

vector 2  sim.host[0].batteryStats  capacity(relative)  ETV
vector 7  sim.host[1].batteryStats  capacity(relative)  ETV
vector 12  sim.host[2].batteryStats  capacity(relative)  ETV
2	0	1
2	0.1	1
2	0.2	1
2	0.3	1
2	0.4	1
2	0.5	1
2	0.6	1
2	0.7	1
2	0.8	1
2	0.9	1
2	1	1
2	1.1	0.956910172479
2	1.2	0.912523502957
2	1.3	0.86799374114
2	1.4	0.82256086002
2	1.5	0.778805295349
2	1.6	0.734267114793
2	1.7	0.689209448126
2	1.8	0.645130845349
2	1.9	0.601193025904
2	2	0.599004422222
2	2.1	0.599004422222
2	2.2	0.599004422222
2	2.3	0.599004422222
2	2.4	0.599004422222
2	2.5	0.599004422222
2	2.6	0.599004422222
2	2.7	0.599004422222
2	2.8	0.599004422222
2	2.9	0.599004422222
2	3	0.597615533333
2	3.1	0.597615533333
2	3.2	0.597615533333
2	3.3	0.597615533333
2	3.4	0.597615533333
2	3.5	0.597615533333
2	3.6	0.597615533333
2	3.7	0.597615533333
2	3.8	0.597615533333
2	3.9	0.597615533333
2	4	0.596226644444
2	4.1	0.596226644444
2	4.2	0.596226644444
2	4.3	0.596226644444
2	4.4	0.596226644444
2	4.5	0.596226644444
2	4.6	0.596226644444
2	4.7	0.596226644444
2	4.8	0.596226644444
2	4.9	0.596226644444
2	5	0.596226644444
2	5.1	0.594837755556
2	5.2	0.594837755556
2	5.3	0.594837755556
2	5.4	0.594837755556
2	5.5	0.594837755556
2	5.6	0.594837755556
2	5.7	0.594837755556
2	5.8	0.594837755556
2	5.9	0.594837755556
2	6	0.594837755556
2	6.1	0.593448866667
2	6.2	0.593448866667
2	6.3	0.593448866667
2	6.4	0.593448866667
2	6.5	0.593448866667
2	6.6	0.593448866667
2	6.7	0.593448866667
2	6.8	0.593448866667
2	6.9	0.593448866667
2	7	0.593448866667
2	7.1	0.592059977778
2	7.2	0.592059977778
2	7.3	0.592059977778
2	7.4	0.592059977778
2	7.5	0.592059977778
2	7.6	0.5518667955
2	7.7	0.507417837308
2	7.8	0.464209735753
2	7.9	0.420884194086
2	8	0.395383983922
2	8.1	0.395323544444
2	8.2	0.395323544444
2	8.3	0.395323544444
2	8.4	0.395323544444
2	8.5	0.395323544444
2	8.6	0.395323544444
2	8.7	0.395323544444
2	8.8	0.395323544444
2	8.9	0.395323544444
2	9	0.395323544444
2	9.1	0.393934655556
2	9.2	0.393934655556
2	9.3	0.393934655556
2	9.4	0.393934655556
2	9.5	0.393934655556
2	9.6	0.393934655556
2	9.7	0.393934655556
2	9.8	0.393934655556
2	9.9	0.393934655556
2	10	0.393934655556
7	0	1
7	0.1	1
7	0.2	1
7	0.3	1
7	0.4	1
7	0.5	1
7	0.6	1
7	0.7	1
7	0.8	1
7	0.9	1
7	1	1
7	1.1	0.958783061368
7	1.2	0.915923502957
7	1.3	0.873276407806
7	1.4	0.829463082242
7	1.5	0.786077339793
7	1.6	0.741684048126
7	1.7	0.697724159237
7	1.8	0.653364667571
7	1.9	0.609545959237
7	2	0.607011577778
7	2.1	0.607011577778
7	2.2	0.607011577778
7	2.3	0.607011577778
7	2.4	0.607011577778
7	2.5	0.607011577778
7	2.6	0.607011577778
7	2.7	0.607011577778
7	2.8	0.607011577778
7	2.9	0.607011577778
7	3	0.605622688889
7	3.1	0.605622688889
7	3.2	0.605622688889
7	3.3	0.605622688889
7	3.4	0.605622688889
7	3.5	0.605622688889
7	3.6	0.605622688889
7	3.7	0.605622688889
7	3.8	0.605622688889
7	3.9	0.605622688889
7	4	0.6042338
7	4.1	0.6042338
7	4.2	0.6042338
7	4.3	0.6042338
7	4.4	0.6042338
7	4.5	0.6042338
7	4.6	0.6042338
7	4.7	0.6042338
7	4.8	0.6042338
7	4.9	0.6042338
7	5	0.6042338
7	5.1	0.602844911111
7	5.2	0.602844911111
7	5.3	0.602844911111
7	5.4	0.602844911111
7	5.5	0.602844911111
7	5.6	0.602844911111
7	5.7	0.602844911111
7	5.8	0.602844911111
7	5.9	0.602844911111
7	6	0.602844911111
7	6.1	0.601456022222
7	6.2	0.601456022222
7	6.3	0.601456022222
7	6.4	0.601456022222
7	6.5	0.601456022222
7	6.6	0.601456022222
7	6.7	0.601456022222
7	6.8	0.601456022222
7	6.9	0.601456022222
7	7	0.601456022222
7	7.1	0.600067133333
7	7.2	0.600067133333
7	7.3	0.600067133333
7	7.4	0.600067133333
7	7.5	0.600067133333
7	7.6	0.557768173278
7	7.7	0.512095215086
7	7.8	0.466939557975
7	7.9	0.421734016308
7	8	0.395632028367
7	8.1	0.395571588889
7	8.2	0.395571588889
7	8.3	0.395571588889
7	8.4	0.395571588889
7	8.5	0.395571588889
7	8.6	0.395571588889
7	8.7	0.395571588889
7	8.8	0.395571588889
7	8.9	0.395571588889
7	9	0.395571588889
7	9.1	0.3941827
7	9.2	0.3941827
7	9.3	0.3941827
7	9.4	0.3941827
7	9.5	0.3941827
7	9.6	0.3941827
7	9.7	0.3941827
7	9.8	0.3941827
7	9.9	0.3941827
7	10	0.3941827
12	0	1
12	0.1	1
12	0.2	1
12	0.3	1
12	0.4	1
12	0.5	1
12	0.6	1
12	0.7	1
12	0.8	1
12	0.9	1
12	1	1
12	1.1	0.958657728034
12	1.2	0.915707502957
12	1.3	0.873060407806
12	1.4	0.829182193353
12	1.5	0.784671117571
12	1.6	0.738706270349
12	1.7	0.69293838146
12	1.8	0.646559334237
12	1.9	0.600963737015
12	2	0.598637355556
12	2.1	0.598637355556
12	2.2	0.598637355556
12	2.3	0.598637355556
12	2.4	0.598637355556
12	2.5	0.598637355556
12	2.6	0.598637355556
12	2.7	0.598637355556
12	2.8	0.598637355556
12	2.9	0.598637355556
12	3	0.597248466667
12	3.1	0.597248466667
12	3.2	0.597248466667
12	3.3	0.597248466667
12	3.4	0.597248466667
12	3.5	0.597248466667
12	3.6	0.597248466667
12	3.7	0.597248466667
12	3.8	0.597248466667
12	3.9	0.597248466667
12	4	0.595859577778
12	4.1	0.595859577778
12	4.2	0.595859577778
12	4.3	0.595859577778
12	4.4	0.595859577778
12	4.5	0.595859577778
12	4.6	0.595859577778
12	4.7	0.595859577778
12	4.8	0.595859577778
12	4.9	0.595859577778
12	5	0.595859577778
12	5.1	0.594470688889
12	5.2	0.594470688889
12	5.3	0.594470688889
12	5.4	0.594470688889
12	5.5	0.594470688889
12	5.6	0.594470688889
12	5.7	0.594470688889
12	5.8	0.594470688889
12	5.9	0.594470688889
12	6	0.594470688889
12	6.1	0.5930818
12	6.2	0.5930818
12	6.3	0.5930818
12	6.4	0.5930818
12	6.5	0.5930818
12	6.6	0.5930818
12	6.7	0.5930818
12	6.8	0.5930818
12	6.9	0.5930818
12	7	0.5930818
12	7.1	0.591692911111
12	7.2	0.591692911111
12	7.3	0.591692911111
12	7.4	0.591692911111
12	7.5	0.591692911111
12	7.6	0.551249062167
12	7.7	0.507301437308
12	7.8	0.464093335753
12	7.9	0.420702905197
12	8	0.3954533617
12	8.1	0.395392922222
12	8.2	0.395392922222
12	8.3	0.395392922222
12	8.4	0.395392922222
12	8.5	0.395392922222
12	8.6	0.395392922222
12	8.7	0.395392922222
12	8.8	0.395392922222
12	8.9	0.395392922222
12	9	0.395392922222
12	9.1	0.394004033333
12	9.2	0.394004033333
12	9.3	0.394004033333
12	9.4	0.394004033333
12	9.5	0.394004033333
12	9.6	0.394004033333
12	9.7	0.394004033333
12	9.8	0.394004033333
12	9.9	0.394004033333
12	10	0.394004033333