version 2
run Three-0-20110329-15:17:50-9089
attr configname Three
attr datetime 20110329-15:17:50
attr experiment Three
attr inifile omnetpp.ini
attr iterationvars ""
attr iterationvars2 $repetition=0
attr measurement ""
attr network sim
attr processid 9089
attr repetition 0
attr replication #0
attr resultdir results
attr runnumber 0
attr seedset 0

vector 2  sim.host[0].batteryStats  capacity(relative)  ETV
vector 8  sim.host[1].batteryStats  capacity(relative)  ETV
2	0	0	0.666666666667
2	0	0	0.666666666667
2	7	1	0.6665
2	9	2	0.666333333333
2	16	2.62802922821	0.666228661795
2	21	2.62888522821	0.666228347929
2	28	3	0.666166495467
2	30	4	0.6659998288
2	32	5	0.665833162133
2	34	6	0.665666495467
2	36	7	0.6654998288
2	38	8	0.665333162133
2	48	8.688070131022	0.665218483778
2	53	8.688926131022	0.665218284045
2	57	9	0.6651664384
2	59	10	0.664999771733
2	60	10	0.664999771733
8	0	0	0.666666666667
8	0	0	0.666666666667
8	8	1	0.6665
8	10	2	0.666333333333
8	19	2.62802922821	0.666228661795
8	24	2.62888522821	0.666228462062
8	29	3	0.6661666096
8	31	4	0.665999942933
8	33	5	0.665833276267
8	35	6	0.6656666096
8	37	7	0.665499942933
8	39	8	0.665333276267
8	45	8.688070131022	0.665218597911
8	50	8.688926131022	0.665218284045
8	58	9	0.6651664384
8	60	10	0.664999771733
