file 8895 1253793440                                            
version 2
run Seven-0-20090924-13:56:48-18895
attr configname Seven
attr datetime 20090924-13:56:48
attr experiment Seven
attr inifile omnetpp.ini
attr iterationvars ""
attr iterationvars2 $repetition=0
attr measurement ""
attr network sim
attr processid 18895
attr repetition 0
attr replication #0
attr resultdir results
attr runnumber 0
attr seedset 0
vector 2  sim.host[0].batteryStats  capacity(relative)  ETV
2	536 3053 0 504 0 7.3 111 0 1 67.516624923474 50.49948021161
vector 7  sim.host[1].batteryStats  capacity(relative)  ETV
7	3589 3052 0 505 0 7.3 111 0 1 67.516643145698 50.499500630708
vector 12  sim.host[2].batteryStats  capacity(relative)  ETV
12	6641 2254 0 433 0 3.7 75 0 0.5 21.72569865681 7.3776853095562
