version 2
run Eight-0-20090922-16:16:48-16899
attr configname Eight
attr datetime 20090922-16:16:48
attr experiment Eight
attr inifile omnetpp.ini
attr iterationvars ""
attr iterationvars2 $repetition=0
attr measurement ""
attr network sim
attr processid 16899
attr repetition 0
attr replication #0
attr resultdir results
attr runnumber 0
attr seedset 0

vector 2  sim.host[0].batteryStats  capacity(relative)  ETV
vector 7  sim.host[1].batteryStats  capacity(relative)  ETV
vector 12  sim.host[2].batteryStats  capacity(relative)  ETV
vector 17  sim.host[3].batteryStats  capacity(relative)  ETV
vector 22  sim.host[4].batteryStats  capacity(relative)  ETV
vector 27  sim.host[5].batteryStats  capacity(relative)  ETV
vector 32  sim.host[6].batteryStats  capacity(relative)  ETV
vector 37  sim.host[7].batteryStats  capacity(relative)  ETV
vector 42  sim.host[8].batteryStats  capacity(relative)  ETV
vector 47  sim.host[9].batteryStats  capacity(relative)  ETV
vector 52  sim.host[10].batteryStats  capacity(relative)  ETV
vector 57  sim.host[11].batteryStats  capacity(relative)  ETV
vector 62  sim.host[12].batteryStats  capacity(relative)  ETV
vector 67  sim.host[13].batteryStats  capacity(relative)  ETV
vector 72  sim.host[14].batteryStats  capacity(relative)  ETV
vector 77  sim.host[15].batteryStats  capacity(relative)  ETV
vector 82  sim.host[16].batteryStats  capacity(relative)  ETV
vector 87  sim.host[17].batteryStats  capacity(relative)  ETV
vector 92  sim.host[18].batteryStats  capacity(relative)  ETV
vector 97  sim.host[19].batteryStats  capacity(relative)  ETV
2	0	0	0.666666666667
2	61	0.25	0.666666666667
2	81	0.5	0.666666666667
2	15080	0.75	0.666492043386
2	15120	1	0.6664
2	15140	1.25	0.6664
2	15160	1.5	0.6664
2	15180	1.75	0.6664
2	16509	2	0.666133333333
2	16529	2.25	0.666133333333
2	29449	2.5	0.66600999715
2	40987	2.75	0.665933387069
2	52578	3	0.665866666667
2	58558	3.25	0.665819480656
2	66549	3.5	0.665764090483
2	70334	3.75	0.665718810717
2	83536	4	0.6656
2	83556	4.25	0.6656
2	92268	4.5	0.665466833857
2	95182	4.75	0.665459409857
2	102422	5	0.665333333333
2	117093	5.25	0.665287833212
2	117113	5.5	0.665287833212
2	135774	5.75	0.665133536021
2	137013	6	0.665066666667
2	137033	6.25	0.665066666667
2	137053	6.5	0.665066666667
2	137073	6.75	0.665066666667
2	145173	7	0.6648
2	146148	7.25	0.664795917958
2	149609	7.5	0.664666831338
2	158341	7.75	0.664646521471
2	167221	8	0.664533333333
2	167241	8.25	0.664533333333
2	167261	8.5	0.664533333333
2	177792	8.75	0.664360049335
2	177832	9	0.664266666667
2	177852	9.25	0.664266666667
2	177872	9.5	0.664266666667
2	197254	9.75	0.664092346653
2	197294	10	0.664
2	197314	10.25	0.664
2	197334	10.5	0.664
2	197354	10.75	0.664
2	197394	11	0.663733333333
2	197414	11.25	0.663733333333
2	197434	11.5	0.663733333333
2	197454	11.75	0.663733333333
2	197494	12	0.663466666667
2	197514	12.25	0.663466666667
2	197534	12.5	0.663466666667
2	197554	12.75	0.663466666667
2	197594	13	0.6632
2	197614	13.25	0.6632
2	197634	13.5	0.6632
2	197654	13.75	0.6632
2	197694	14	0.662933333333
2	197714	14.25	0.662933333333
2	197734	14.5	0.662933333333
2	197754	14.75	0.662933333333
2	197794	15	0.662666666667
2	197814	15.25	0.662666666667
2	197834	15.5	0.662666666667
2	197854	15.75	0.662666666667
2	197894	16	0.6624
2	197914	16.25	0.6624
2	197934	16.5	0.6624
2	197954	16.75	0.6624
2	197994	17	0.662133333333
2	198014	17.25	0.662133333333
2	198034	17.5	0.662133333333
2	198054	17.75	0.662133333333
2	198094	18	0.661866666667
2	198114	18.25	0.661866666667
2	198134	18.5	0.661866666667
2	198154	18.75	0.661866666667
2	198194	19	0.6616
2	198214	19.25	0.6616
2	198234	19.5	0.6616
2	198254	19.75	0.6616
2	198294	20	0.661333333333
2	198314	20.25	0.661333333333
2	198334	20.5	0.661333333333
2	198354	20.75	0.661333333333
2	198394	21	0.661066666667
2	198414	21.25	0.661066666667
2	198434	21.5	0.661066666667
2	198454	21.75	0.661066666667
2	198494	22	0.6608
2	198514	22.25	0.6608
2	198534	22.5	0.6608
2	198554	22.75	0.6608
2	198594	23	0.660533333333
2	198614	23.25	0.660533333333
2	198634	23.5	0.660533333333
2	198654	23.75	0.660533333333
2	198694	24	0.660266666667
2	198714	24.25	0.660266666667
2	198734	24.5	0.660266666667
2	198754	24.75	0.660266666667
2	198794	25	0.66
2	198814	25.25	0.66
2	198834	25.5	0.66
2	198854	25.75	0.66
2	198894	26	0.659733333333
2	198914	26.25	0.659733333333
2	198934	26.5	0.659733333333
2	198954	26.75	0.659733333333
2	198994	27	0.659466666667
2	199014	27.25	0.659466666667
2	199034	27.5	0.659466666667
2	199054	27.75	0.659466666667
2	199094	28	0.6592
2	199114	28.25	0.6592
2	199134	28.5	0.6592
2	199154	28.75	0.6592
2	199194	29	0.658933333333
2	199214	29.25	0.658933333333
2	199234	29.5	0.658933333333
2	199254	29.75	0.658933333333
2	199294	30	0.658666666667
2	199314	30.25	0.658666666667
2	199334	30.5	0.658666666667
2	199354	30.75	0.658666666667
2	199394	31	0.6584
2	199414	31.25	0.6584
2	199434	31.5	0.6584
2	199454	31.75	0.6584
2	199494	32	0.658133333333
2	199514	32.25	0.658133333333
2	199534	32.5	0.658133333333
2	199554	32.75	0.658133333333
2	199594	33	0.657866666667
2	199614	33.25	0.657866666667
2	199634	33.5	0.657866666667
2	199654	33.75	0.657866666667
2	199694	34	0.6576
2	199714	34.25	0.6576
2	199734	34.5	0.6576
2	199754	34.75	0.6576
2	199794	35	0.657333333333
2	199814	35.25	0.657333333333
2	199834	35.5	0.657333333333
2	199854	35.75	0.657333333333
2	199894	36	0.657066666667
2	199914	36.25	0.657066666667
2	199934	36.5	0.657066666667
2	199954	36.75	0.657066666667
2	199994	37	0.6568
2	200014	37.25	0.6568
2	200034	37.5	0.6568
2	200054	37.75	0.6568
2	200094	38	0.656533333333
2	200114	38.25	0.656533333333
2	200134	38.5	0.656533333333
2	200154	38.75	0.656533333333
2	200194	39	0.656266666667
2	200214	39.25	0.656266666667
2	200234	39.5	0.656266666667
2	200254	39.75	0.656266666667
2	200294	40	0.656
2	200314	40.25	0.656
2	200334	40.5	0.656
2	200354	40.75	0.656
2	200394	41	0.655733333333
2	200414	41.25	0.655733333333
2	200434	41.5	0.655733333333
2	200454	41.75	0.655733333333
2	200494	42	0.655466666667
2	200514	42.25	0.655466666667
2	200534	42.5	0.655466666667
2	200554	42.75	0.655466666667
2	200594	43	0.6552
2	200614	43.25	0.6552
2	200634	43.5	0.6552
2	200654	43.75	0.6552
2	200694	44	0.654933333333
2	200714	44.25	0.654933333333
2	200734	44.5	0.654933333333
2	200754	44.75	0.654933333333
2	200794	45	0.654666666667
2	200814	45.25	0.654666666667
2	200834	45.5	0.654666666667
2	200854	45.75	0.654666666667
2	200894	46	0.6544
2	200914	46.25	0.6544
2	200934	46.5	0.6544
2	200954	46.75	0.6544
2	200994	47	0.654133333333
2	201014	47.25	0.654133333333
2	201034	47.5	0.654133333333
2	201054	47.75	0.654133333333
2	201094	48	0.653866666667
2	201114	48.25	0.653866666667
2	201134	48.5	0.653866666667
2	201154	48.75	0.653866666667
2	201194	49	0.6536
2	201214	49.25	0.6536
2	201234	49.5	0.6536
2	201254	49.75	0.6536
2	201294	50	0.653333333333
2	201314	50.25	0.653333333333
2	201334	50.5	0.653333333333
2	201354	50.75	0.653333333333
2	201394	51	0.653066666667
2	201414	51.25	0.653066666667
2	201434	51.5	0.653066666667
2	201454	51.75	0.653066666667
2	201494	52	0.6528
2	201514	52.25	0.6528
2	201534	52.5	0.6528
2	201554	52.75	0.6528
2	201594	53	0.652533333333
2	201614	53.25	0.652533333333
2	201634	53.5	0.652533333333
2	201654	53.75	0.652533333333
2	201694	54	0.652266666667
2	201714	54.25	0.652266666667
2	201734	54.5	0.652266666667
2	201754	54.75	0.652266666667
2	201794	55	0.652
2	201814	55.25	0.652
2	201834	55.5	0.652
2	201854	55.75	0.652
2	201894	56	0.651733333333
2	201914	56.25	0.651733333333
2	201934	56.5	0.651733333333
2	201954	56.75	0.651733333333
2	201994	57	0.651466666667
2	202014	57.25	0.651466666667
2	202034	57.5	0.651466666667
2	202054	57.75	0.651466666667
2	202094	58	0.6512
2	202114	58.25	0.6512
2	202134	58.5	0.6512
2	202154	58.75	0.6512
2	202194	59	0.650933333333
2	202214	59.25	0.650933333333
2	202234	59.5	0.650933333333
2	202254	59.75	0.650933333333
2	202294	60	0.650666666667
2	202314	60.25	0.650666666667
2	202334	60.5	0.650666666667
2	202354	60.75	0.650666666667
2	202394	61	0.6504
2	202414	61.25	0.6504
2	202434	61.5	0.6504
2	202454	61.75	0.6504
2	202494	62	0.650133333333
2	202514	62.25	0.650133333333
2	202534	62.5	0.650133333333
2	202554	62.75	0.650133333333
2	202594	63	0.649866666667
2	202614	63.25	0.649866666667
2	202634	63.5	0.649866666667
2	202654	63.75	0.649866666667
2	202694	64	0.6496
2	202714	64.25	0.6496
2	202734	64.5	0.6496
2	202754	64.75	0.6496
2	202794	65	0.649333333333
2	202814	65.25	0.649333333333
2	202834	65.5	0.649333333333
2	202854	65.75	0.649333333333
2	202894	66	0.649066666667
2	202914	66.25	0.649066666667
2	202934	66.5	0.649066666667
2	202954	66.75	0.649066666667
2	202994	67	0.6488
2	203014	67.25	0.6488
2	203034	67.5	0.6488
2	203054	67.75	0.6488
2	203094	68	0.648533333333
2	203114	68.25	0.648533333333
2	203134	68.5	0.648533333333
2	203154	68.75	0.648533333333
2	203194	69	0.648266666667
2	203214	69.25	0.648266666667
2	203234	69.5	0.648266666667
2	203254	69.75	0.648266666667
2	203294	70	0.648
2	203314	70.25	0.648
2	203334	70.5	0.648
2	203354	70.75	0.648
2	203394	71	0.647733333333
2	203414	71.25	0.647733333333
2	203434	71.5	0.647733333333
2	203454	71.75	0.647733333333
2	203494	72	0.647466666667
2	203514	72.25	0.647466666667
2	203534	72.5	0.647466666667
2	203554	72.75	0.647466666667
2	203594	73	0.6472
2	203614	73.25	0.6472
2	203634	73.5	0.6472
2	203654	73.75	0.6472
2	203694	74	0.646933333333
2	203714	74.25	0.646933333333
2	203734	74.5	0.646933333333
2	203754	74.75	0.646933333333
2	203794	75	0.646666666667
2	203814	75.25	0.646666666667
2	203834	75.5	0.646666666667
2	203854	75.75	0.646666666667
2	203894	76	0.6464
2	203914	76.25	0.6464
2	203934	76.5	0.6464
2	203954	76.75	0.6464
2	203994	77	0.646133333333
2	204014	77.25	0.646133333333
2	204034	77.5	0.646133333333
2	204054	77.75	0.646133333333
2	204094	78	0.645866666667
2	204114	78.25	0.645866666667
2	204134	78.5	0.645866666667
2	204154	78.75	0.645866666667
2	204194	79	0.6456
2	204214	79.25	0.6456
2	204234	79.5	0.6456
2	204254	79.75	0.6456
2	204294	80	0.645333333333
2	204314	80.25	0.645333333333
2	204334	80.5	0.645333333333
2	204354	80.75	0.645333333333
2	204394	81	0.645066666667
2	204414	81.25	0.645066666667
2	204434	81.5	0.645066666667
2	204454	81.75	0.645066666667
2	204494	82	0.6448
2	204514	82.25	0.6448
2	204534	82.5	0.6448
2	204554	82.75	0.6448
2	204594	83	0.644533333333
2	204614	83.25	0.644533333333
2	204634	83.5	0.644533333333
2	204654	83.75	0.644533333333
2	204694	84	0.644266666667
2	204714	84.25	0.644266666667
2	204734	84.5	0.644266666667
2	204754	84.75	0.644266666667
2	204794	85	0.644
2	204814	85.25	0.644
2	204834	85.5	0.644
2	204854	85.75	0.644
2	204894	86	0.643733333333
2	204914	86.25	0.643733333333
2	204934	86.5	0.643733333333
2	204954	86.75	0.643733333333
2	204994	87	0.643466666667
2	205014	87.25	0.643466666667
2	205034	87.5	0.643466666667
2	205054	87.75	0.643466666667
2	205094	88	0.6432
2	205114	88.25	0.6432
2	205134	88.5	0.6432
2	205154	88.75	0.6432
2	205194	89	0.642933333333
2	205214	89.25	0.642933333333
2	205234	89.5	0.642933333333
2	205254	89.75	0.642933333333
2	205294	90	0.642666666667
2	205314	90.25	0.642666666667
2	205334	90.5	0.642666666667
2	205354	90.75	0.642666666667
2	205394	91	0.6424
2	205414	91.25	0.6424
2	205434	91.5	0.6424
2	205454	91.75	0.6424
2	205494	92	0.642133333333
2	205514	92.25	0.642133333333
2	205534	92.5	0.642133333333
2	205554	92.75	0.642133333333
2	205594	93	0.641866666667
2	205614	93.25	0.641866666667
2	205634	93.5	0.641866666667
2	205654	93.75	0.641866666667
2	205694	94	0.6416
2	205714	94.25	0.6416
2	205734	94.5	0.6416
2	205754	94.75	0.6416
2	205794	95	0.641333333333
2	205814	95.25	0.641333333333
2	205834	95.5	0.641333333333
2	205854	95.75	0.641333333333
2	205894	96	0.641066666667
2	205914	96.25	0.641066666667
2	205934	96.5	0.641066666667
2	205954	96.75	0.641066666667
2	205994	97	0.6408
2	206014	97.25	0.6408
2	206034	97.5	0.6408
2	206054	97.75	0.6408
2	206094	98	0.640533333333
2	206114	98.25	0.640533333333
2	206134	98.5	0.640533333333
2	206154	98.75	0.640533333333
2	206194	99	0.640266666667
2	206214	99.25	0.640266666667
2	206234	99.5	0.640266666667
2	206254	99.75	0.640266666667
2	206294	100	0.64
2	206314	100.25	0.64
2	206334	100.5	0.64
2	206354	100.75	0.64
2	206394	101	0.639733333333
2	206414	101.25	0.639733333333
2	206434	101.5	0.639733333333
2	206454	101.75	0.639733333333
2	206494	102	0.639466666667
2	206514	102.25	0.639466666667
2	206534	102.5	0.639466666667
2	206554	102.75	0.639466666667
2	206594	103	0.6392
2	206614	103.25	0.6392
2	206634	103.5	0.6392
2	206654	103.75	0.6392
2	206694	104	0.638933333333
2	206714	104.25	0.638933333333
2	206734	104.5	0.638933333333
2	206754	104.75	0.638933333333
2	206794	105	0.638666666667
2	206814	105.25	0.638666666667
2	206834	105.5	0.638666666667
2	206854	105.75	0.638666666667
2	206894	106	0.6384
2	206914	106.25	0.6384
2	206934	106.5	0.6384
2	206954	106.75	0.6384
2	206994	107	0.638133333333
2	207014	107.25	0.638133333333
2	207034	107.5	0.638133333333
2	207054	107.75	0.638133333333
2	207094	108	0.637866666667
2	207114	108.25	0.637866666667
2	207134	108.5	0.637866666667
2	207154	108.75	0.637866666667
2	207194	109	0.6376
2	207214	109.25	0.6376
2	207234	109.5	0.6376
2	207254	109.75	0.6376
2	207294	110	0.637333333333
2	207314	110.25	0.637333333333
2	207334	110.5	0.637333333333
2	207354	110.75	0.637333333333
2	207394	111	0.637066666667
2	207414	111.25	0.637066666667
2	207434	111.5	0.637066666667
2	207454	111.75	0.637066666667
2	207494	112	0.6368
2	207514	112.25	0.6368
2	207534	112.5	0.6368
2	207554	112.75	0.6368
2	207594	113	0.636533333333
2	207614	113.25	0.636533333333
2	207634	113.5	0.636533333333
2	207654	113.75	0.636533333333
2	207694	114	0.636266666667
2	207714	114.25	0.636266666667
2	207734	114.5	0.636266666667
2	207754	114.75	0.636266666667
2	207794	115	0.636
2	207814	115.25	0.636
2	207834	115.5	0.636
2	207854	115.75	0.636
2	207894	116	0.635733333333
2	207914	116.25	0.635733333333
2	207934	116.5	0.635733333333
2	207954	116.75	0.635733333333
2	207994	117	0.635466666667
2	208014	117.25	0.635466666667
2	208034	117.5	0.635466666667
2	208054	117.75	0.635466666667
2	208094	118	0.6352
2	208114	118.25	0.6352
2	208134	118.5	0.6352
2	208154	118.75	0.6352
2	208194	119	0.634933333333
2	208214	119.25	0.634933333333
2	208234	119.5	0.634933333333
2	208254	119.75	0.634933333333
2	208294	120	0.634666666667
2	208314	120.25	0.634666666667
2	208334	120.5	0.634666666667
2	208354	120.75	0.634666666667
2	208394	121	0.6344
2	208414	121.25	0.6344
2	208434	121.5	0.6344
2	208454	121.75	0.6344
2	208494	122	0.634133333333
2	208514	122.25	0.634133333333
2	208534	122.5	0.634133333333
2	208554	122.75	0.634133333333
2	208594	123	0.633866666667
2	208614	123.25	0.633866666667
2	208634	123.5	0.633866666667
2	208654	123.75	0.633866666667
2	208694	124	0.6336
2	208714	124.25	0.6336
2	208734	124.5	0.6336
2	208754	124.75	0.6336
2	208794	125	0.633333333333
2	208814	125.25	0.633333333333
2	208834	125.5	0.633333333333
2	208854	125.75	0.633333333333
2	208894	126	0.633066666667
2	208914	126.25	0.633066666667
2	208934	126.5	0.633066666667
2	208954	126.75	0.633066666667
2	208994	127	0.6328
2	209014	127.25	0.6328
2	209034	127.5	0.6328
2	209054	127.75	0.6328
2	209094	128	0.632533333333
2	209114	128.25	0.632533333333
2	209134	128.5	0.632533333333
2	209154	128.75	0.632533333333
2	209194	129	0.632266666667
2	209214	129.25	0.632266666667
2	209234	129.5	0.632266666667
2	209254	129.75	0.632266666667
2	209294	130	0.632
2	209314	130.25	0.632
2	209334	130.5	0.632
2	209354	130.75	0.632
2	209394	131	0.631733333333
2	209414	131.25	0.631733333333
2	209434	131.5	0.631733333333
2	209454	131.75	0.631733333333
2	209494	132	0.631466666667
2	209514	132.25	0.631466666667
2	209534	132.5	0.631466666667
2	209554	132.75	0.631466666667
2	209594	133	0.6312
2	209614	133.25	0.6312
2	209634	133.5	0.6312
2	209654	133.75	0.6312
2	209694	134	0.630933333333
2	209714	134.25	0.630933333333
2	209734	134.5	0.630933333333
2	209754	134.75	0.630933333333
2	209794	135	0.630666666667
2	209814	135.25	0.630666666667
2	209834	135.5	0.630666666667
2	209854	135.75	0.630666666667
2	209894	136	0.6304
2	209914	136.25	0.6304
2	209934	136.5	0.6304
2	209954	136.75	0.6304
2	209994	137	0.630133333333
2	210014	137.25	0.630133333333
2	210034	137.5	0.630133333333
2	210054	137.75	0.630133333333
2	210094	138	0.629866666667
2	210114	138.25	0.629866666667
2	210134	138.5	0.629866666667
2	210154	138.75	0.629866666667
2	210194	139	0.6296
2	210214	139.25	0.6296
2	210234	139.5	0.6296
2	210254	139.75	0.6296
2	210294	140	0.629333333333
2	210314	140.25	0.629333333333
2	210334	140.5	0.629333333333
2	210354	140.75	0.629333333333
2	210394	141	0.629066666667
2	210414	141.25	0.629066666667
2	210434	141.5	0.629066666667
2	210454	141.75	0.629066666667
2	210494	142	0.6288
2	210514	142.25	0.6288
2	210534	142.5	0.6288
2	210554	142.75	0.6288
2	210594	143	0.628533333333
2	210614	143.25	0.628533333333
2	210634	143.5	0.628533333333
2	210654	143.75	0.628533333333
2	210694	144	0.628266666667
2	210714	144.25	0.628266666667
2	210734	144.5	0.628266666667
2	210754	144.75	0.628266666667
2	210794	145	0.628
2	210814	145.25	0.628
2	210834	145.5	0.628
2	210854	145.75	0.628
2	210894	146	0.627733333333
2	210914	146.25	0.627733333333
2	210934	146.5	0.627733333333
2	210954	146.75	0.627733333333
2	210994	147	0.627466666667
2	211014	147.25	0.627466666667
2	211034	147.5	0.627466666667
2	211054	147.75	0.627466666667
2	211094	148	0.6272
2	211114	148.25	0.6272
2	211134	148.5	0.6272
2	211154	148.75	0.6272
2	211194	149	0.626933333333
2	211214	149.25	0.626933333333
2	211234	149.5	0.626933333333
2	211254	149.75	0.626933333333
2	211294	150	0.626666666667
2	211314	150.25	0.626666666667
2	211334	150.5	0.626666666667
2	211354	150.75	0.626666666667
2	211394	151	0.6264
2	211414	151.25	0.6264
2	211434	151.5	0.6264
2	211454	151.75	0.6264
2	211494	152	0.626133333333
2	211514	152.25	0.626133333333
2	211534	152.5	0.626133333333
2	211554	152.75	0.626133333333
2	211594	153	0.625866666667
2	211614	153.25	0.625866666667
2	211634	153.5	0.625866666667
2	211654	153.75	0.625866666667
2	211694	154	0.6256
2	211714	154.25	0.6256
2	211734	154.5	0.6256
2	211754	154.75	0.6256
2	211794	155	0.625333333333
2	211814	155.25	0.625333333333
2	211834	155.5	0.625333333333
2	211854	155.75	0.625333333333
2	211894	156	0.625066666667
2	211914	156.25	0.625066666667
2	211934	156.5	0.625066666667
2	211954	156.75	0.625066666667
2	211994	157	0.6248
2	212014	157.25	0.6248
2	212034	157.5	0.6248
2	212054	157.75	0.6248
2	212094	158	0.624533333333
2	212114	158.25	0.624533333333
2	212134	158.5	0.624533333333
2	212154	158.75	0.624533333333
2	212194	159	0.624266666667
2	212214	159.25	0.624266666667
2	212234	159.5	0.624266666667
2	212254	159.75	0.624266666667
2	212294	160	0.624
2	212314	160.25	0.624
2	212334	160.5	0.624
2	212354	160.75	0.624
2	212394	161	0.623733333333
2	212414	161.25	0.623733333333
2	212434	161.5	0.623733333333
2	212454	161.75	0.623733333333
2	212494	162	0.623466666667
2	212514	162.25	0.623466666667
2	212534	162.5	0.623466666667
2	212554	162.75	0.623466666667
2	212594	163	0.6232
2	212614	163.25	0.6232
2	212634	163.5	0.6232
2	212654	163.75	0.6232
2	212694	164	0.622933333333
2	212714	164.25	0.622933333333
2	212734	164.5	0.622933333333
2	212754	164.75	0.622933333333
2	212794	165	0.622666666667
2	212814	165.25	0.622666666667
2	212834	165.5	0.622666666667
2	212854	165.75	0.622666666667
2	212894	166	0.6224
2	212914	166.25	0.6224
2	212934	166.5	0.6224
2	212954	166.75	0.6224
2	212994	167	0.622133333333
2	213014	167.25	0.622133333333
2	213034	167.5	0.622133333333
2	213054	167.75	0.622133333333
2	213094	168	0.621866666667
2	213114	168.25	0.621866666667
2	213134	168.5	0.621866666667
2	213154	168.75	0.621866666667
2	213194	169	0.6216
2	213214	169.25	0.6216
2	213234	169.5	0.6216
2	213254	169.75	0.6216
2	213294	170	0.621333333333
2	213314	170.25	0.621333333333
2	213334	170.5	0.621333333333
2	213354	170.75	0.621333333333
2	213394	171	0.621066666667
2	213414	171.25	0.621066666667
2	213434	171.5	0.621066666667
2	213454	171.75	0.621066666667
2	213494	172	0.6208
2	213514	172.25	0.6208
2	213534	172.5	0.6208
2	213554	172.75	0.6208
2	213594	173	0.620533333333
2	213614	173.25	0.620533333333
2	213634	173.5	0.620533333333
2	213654	173.75	0.620533333333
2	213694	174	0.620266666667
2	213714	174.25	0.620266666667
2	213734	174.5	0.620266666667
2	213754	174.75	0.620266666667
2	213794	175	0.62
2	213814	175.25	0.62
2	213834	175.5	0.62
2	213854	175.75	0.62
2	213894	176	0.619733333333
2	213914	176.25	0.619733333333
2	213934	176.5	0.619733333333
2	213954	176.75	0.619733333333
2	213994	177	0.619466666667
2	214014	177.25	0.619466666667
2	214034	177.5	0.619466666667
2	214054	177.75	0.619466666667
2	214094	178	0.6192
2	214114	178.25	0.6192
2	214134	178.5	0.6192
2	214154	178.75	0.6192
2	214194	179	0.618933333333
2	214214	179.25	0.618933333333
2	214234	179.5	0.618933333333
2	214254	179.75	0.618933333333
2	214294	180	0.618666666667
2	214314	180.25	0.618666666667
2	214334	180.5	0.618666666667
2	214354	180.75	0.618666666667
2	214394	181	0.6184
2	214414	181.25	0.6184
2	214434	181.5	0.6184
2	214454	181.75	0.6184
2	214494	182	0.618133333333
2	214514	182.25	0.618133333333
2	214534	182.5	0.618133333333
2	214554	182.75	0.618133333333
2	214594	183	0.617866666667
2	214614	183.25	0.617866666667
2	214634	183.5	0.617866666667
2	214654	183.75	0.617866666667
2	214694	184	0.6176
2	214714	184.25	0.6176
2	214734	184.5	0.6176
2	214754	184.75	0.6176
2	214794	185	0.617333333333
2	214814	185.25	0.617333333333
2	214834	185.5	0.617333333333
2	214854	185.75	0.617333333333
2	214894	186	0.617066666667
2	214914	186.25	0.617066666667
2	214934	186.5	0.617066666667
2	214954	186.75	0.617066666667
2	214994	187	0.6168
2	215014	187.25	0.6168
2	215034	187.5	0.6168
2	215054	187.75	0.6168
2	215094	188	0.616533333333
2	215114	188.25	0.616533333333
2	215134	188.5	0.616533333333
2	215154	188.75	0.616533333333
2	215194	189	0.616266666667
2	215214	189.25	0.616266666667
2	215234	189.5	0.616266666667
2	215254	189.75	0.616266666667
2	215294	190	0.616
2	215314	190.25	0.616
2	215334	190.5	0.616
2	215354	190.75	0.616
2	215394	191	0.615733333333
2	215414	191.25	0.615733333333
2	215434	191.5	0.615733333333
2	215454	191.75	0.615733333333
2	215494	192	0.615466666667
2	215514	192.25	0.615466666667
2	215534	192.5	0.615466666667
2	215554	192.75	0.615466666667
2	215594	193	0.6152
2	215614	193.25	0.6152
2	215634	193.5	0.6152
2	215654	193.75	0.6152
2	215694	194	0.614933333333
2	215714	194.25	0.614933333333
2	215734	194.5	0.614933333333
2	215754	194.75	0.614933333333
2	215794	195	0.614666666667
2	215814	195.25	0.614666666667
2	215834	195.5	0.614666666667
2	215854	195.75	0.614666666667
2	215894	196	0.6144
2	215914	196.25	0.6144
2	215934	196.5	0.6144
2	215954	196.75	0.6144
2	215994	197	0.614133333333
2	216014	197.25	0.614133333333
2	216034	197.5	0.614133333333
2	216054	197.75	0.614133333333
2	216094	198	0.613866666667
2	216114	198.25	0.613866666667
2	216134	198.5	0.613866666667
2	216154	198.75	0.613866666667
2	216194	199	0.6136
2	216214	199.25	0.6136
2	216234	199.5	0.6136
2	216254	199.75	0.6136
2	216294	200	0.613333333333
2	216314	200.25	0.613333333333
2	216334	200.5	0.613333333333
2	216354	200.75	0.613333333333
2	216394	201	0.613066666667
2	216414	201.25	0.613066666667
2	216434	201.5	0.613066666667
2	216454	201.75	0.613066666667
2	216494	202	0.6128
2	216514	202.25	0.6128
2	216534	202.5	0.6128
2	216554	202.75	0.6128
2	216594	203	0.612533333333
2	216614	203.25	0.612533333333
2	216634	203.5	0.612533333333
2	216654	203.75	0.612533333333
2	216694	204	0.612266666667
2	216714	204.25	0.612266666667
2	216734	204.5	0.612266666667
2	216754	204.75	0.612266666667
2	216794	205	0.612
2	216814	205.25	0.612
2	216834	205.5	0.612
2	216854	205.75	0.612
2	216894	206	0.611733333333
2	216914	206.25	0.611733333333
2	216934	206.5	0.611733333333
2	216954	206.75	0.611733333333
2	216994	207	0.611466666667
2	217014	207.25	0.611466666667
2	217034	207.5	0.611466666667
2	217054	207.75	0.611466666667
2	217094	208	0.6112
2	217114	208.25	0.6112
2	217134	208.5	0.6112
2	217154	208.75	0.6112
2	217194	209	0.610933333333
2	217214	209.25	0.610933333333
2	217234	209.5	0.610933333333
2	217254	209.75	0.610933333333
2	217294	210	0.610666666667
2	217314	210.25	0.610666666667
2	217334	210.5	0.610666666667
2	217354	210.75	0.610666666667
2	217394	211	0.6104
2	217414	211.25	0.6104
2	217434	211.5	0.6104
2	217454	211.75	0.6104
2	217494	212	0.610133333333
2	217514	212.25	0.610133333333
2	217534	212.5	0.610133333333
2	217554	212.75	0.610133333333
2	217594	213	0.609866666667
2	217614	213.25	0.609866666667
2	217634	213.5	0.609866666667
2	217654	213.75	0.609866666667
2	217694	214	0.6096
2	217714	214.25	0.6096
2	217734	214.5	0.6096
2	217754	214.75	0.6096
2	217794	215	0.609333333333
2	217814	215.25	0.609333333333
2	217834	215.5	0.609333333333
2	217854	215.75	0.609333333333
2	217894	216	0.609066666667
2	217914	216.25	0.609066666667
2	217934	216.5	0.609066666667
2	217954	216.75	0.609066666667
2	217994	217	0.6088
2	218014	217.25	0.6088
2	218034	217.5	0.6088
2	218054	217.75	0.6088
2	218094	218	0.608533333333
2	218114	218.25	0.608533333333
2	218134	218.5	0.608533333333
2	218154	218.75	0.608533333333
2	218194	219	0.608266666667
2	218214	219.25	0.608266666667
2	218234	219.5	0.608266666667
2	218254	219.75	0.608266666667
2	218294	220	0.608
2	218314	220.25	0.608
2	218334	220.5	0.608
2	218354	220.75	0.608
2	218394	221	0.607733333333
2	218414	221.25	0.607733333333
2	218434	221.5	0.607733333333
2	218454	221.75	0.607733333333
2	218494	222	0.607466666667
2	218514	222.25	0.607466666667
2	218534	222.5	0.607466666667
2	218554	222.75	0.607466666667
2	218594	223	0.6072
2	218614	223.25	0.6072
2	218634	223.5	0.6072
2	218654	223.75	0.6072
2	218694	224	0.606933333333
2	218714	224.25	0.606933333333
2	218734	224.5	0.606933333333
2	218754	224.75	0.606933333333
2	218794	225	0.606666666667
2	218814	225.25	0.606666666667
2	218834	225.5	0.606666666667
2	218854	225.75	0.606666666667
2	218894	226	0.6064
2	218914	226.25	0.6064
2	218934	226.5	0.6064
2	218954	226.75	0.6064
2	218994	227	0.606133333333
2	219014	227.25	0.606133333333
2	219034	227.5	0.606133333333
2	219054	227.75	0.606133333333
2	219094	228	0.605866666667
2	219114	228.25	0.605866666667
2	219134	228.5	0.605866666667
2	219154	228.75	0.605866666667
2	219194	229	0.6056
2	219214	229.25	0.6056
2	219234	229.5	0.6056
2	219254	229.75	0.6056
2	219294	230	0.605333333333
2	219314	230.25	0.605333333333
2	219334	230.5	0.605333333333
2	219354	230.75	0.605333333333
2	219394	231	0.605066666667
2	219414	231.25	0.605066666667
2	219434	231.5	0.605066666667
2	219454	231.75	0.605066666667
2	219494	232	0.6048
2	219514	232.25	0.6048
2	219534	232.5	0.6048
2	219554	232.75	0.6048
2	219594	233	0.604533333333
2	219614	233.25	0.604533333333
2	219634	233.5	0.604533333333
2	219654	233.75	0.604533333333
2	219694	234	0.604266666667
2	219714	234.25	0.604266666667
2	219734	234.5	0.604266666667
2	219754	234.75	0.604266666667
2	219794	235	0.604
2	219814	235.25	0.604
2	219834	235.5	0.604
2	219854	235.75	0.604
2	219894	236	0.603733333333
2	219914	236.25	0.603733333333
2	219934	236.5	0.603733333333
2	219954	236.75	0.603733333333
2	219994	237	0.603466666667
2	220014	237.25	0.603466666667
2	220034	237.5	0.603466666667
2	220054	237.75	0.603466666667
2	220094	238	0.6032
2	220114	238.25	0.6032
2	220134	238.5	0.6032
2	220154	238.75	0.6032
2	220194	239	0.602933333333
2	220214	239.25	0.602933333333
2	220234	239.5	0.602933333333
2	220254	239.75	0.602933333333
2	220294	240	0.602666666667
2	220314	240.25	0.602666666667
2	220334	240.5	0.602666666667
2	220354	240.75	0.602666666667
2	220394	241	0.6024
2	220414	241.25	0.6024
2	220434	241.5	0.6024
2	220454	241.75	0.6024
2	220494	242	0.602133333333
2	220514	242.25	0.602133333333
2	220534	242.5	0.602133333333
2	220554	242.75	0.602133333333
2	220594	243	0.601866666667
2	220614	243.25	0.601866666667
2	220634	243.5	0.601866666667
2	220654	243.75	0.601866666667
2	220694	244	0.6016
2	220714	244.25	0.6016
2	220734	244.5	0.6016
2	220754	244.75	0.6016
2	220794	245	0.601333333333
2	220814	245.25	0.601333333333
2	220834	245.5	0.601333333333
2	220854	245.75	0.601333333333
2	220894	246	0.601066666667
2	220914	246.25	0.601066666667
2	220934	246.5	0.601066666667
2	220954	246.75	0.601066666667
2	220994	247	0.6008
2	221014	247.25	0.6008
2	221034	247.5	0.6008
2	221054	247.75	0.6008
2	221094	248	0.600533333333
2	221114	248.25	0.600533333333
2	221134	248.5	0.600533333333
2	221154	248.75	0.600533333333
2	221194	249	0.600266666667
2	221214	249.25	0.600266666667
2	221234	249.5	0.600266666667
2	221254	249.75	0.600266666667
2	221294	250	0.6
2	221314	250.25	0.6
2	221334	250.5	0.6
2	221354	250.75	0.6
2	221394	251	0.599733333333
2	221414	251.25	0.599733333333
2	221434	251.5	0.599733333333
2	221454	251.75	0.599733333333
2	221494	252	0.599466666667
2	221514	252.25	0.599466666667
2	221534	252.5	0.599466666667
2	221554	252.75	0.599466666667
2	221594	253	0.5992
2	221614	253.25	0.5992
2	221634	253.5	0.5992
2	221654	253.75	0.5992
2	221694	254	0.598933333333
2	221714	254.25	0.598933333333
2	221734	254.5	0.598933333333
2	221754	254.75	0.598933333333
2	221794	255	0.598666666667
2	221814	255.25	0.598666666667
2	221834	255.5	0.598666666667
2	221854	255.75	0.598666666667
2	221894	256	0.5984
2	221914	256.25	0.5984
2	221934	256.5	0.5984
2	221954	256.75	0.5984
2	221994	257	0.598133333333
2	222014	257.25	0.598133333333
2	222034	257.5	0.598133333333
2	222054	257.75	0.598133333333
2	222094	258	0.597866666667
2	222114	258.25	0.597866666667
2	222134	258.5	0.597866666667
2	222154	258.75	0.597866666667
2	222194	259	0.5976
2	222214	259.25	0.5976
2	222234	259.5	0.5976
2	222254	259.75	0.5976
2	222294	260	0.597333333333
2	222314	260.25	0.597333333333
2	222334	260.5	0.597333333333
2	222354	260.75	0.597333333333
2	222394	261	0.597066666667
2	222414	261.25	0.597066666667
2	222434	261.5	0.597066666667
2	222454	261.75	0.597066666667
2	222494	262	0.5968
2	222514	262.25	0.5968
2	222534	262.5	0.5968
2	222554	262.75	0.5968
2	222594	263	0.596533333333
2	222614	263.25	0.596533333333
2	222634	263.5	0.596533333333
2	222654	263.75	0.596533333333
2	222694	264	0.596266666667
2	222714	264.25	0.596266666667