version 2
run Eight-0-20090820-14:53:43-18563
attr configname Eight
attr datetime 20090820-14:53:43
attr experiment Eight
attr inifile omnetpp.ini
attr iterationvars ""
attr iterationvars2 $repetition=0
attr measurement ""
attr network sim
attr processid 18563
attr repetition 0
attr replication #0
attr resultdir results
attr runnumber 0
attr seedset 0

vector 2  sim.host[0].batteryStats  capacity(relative)  ETV
vector 7  sim.host[1].batteryStats  capacity(relative)  ETV
vector 12  sim.host[2].batteryStats  capacity(relative)  ETV
vector 17  sim.host[3].batteryStats  capacity(relative)  ETV
vector 22  sim.host[4].batteryStats  capacity(relative)  ETV
vector 27  sim.host[5].batteryStats  capacity(relative)  ETV
vector 32  sim.host[6].batteryStats  capacity(relative)  ETV
vector 37  sim.host[7].batteryStats  capacity(relative)  ETV
vector 42  sim.host[8].batteryStats  capacity(relative)  ETV
vector 47  sim.host[9].batteryStats  capacity(relative)  ETV
vector 52  sim.host[10].batteryStats  capacity(relative)  ETV
vector 57  sim.host[11].batteryStats  capacity(relative)  ETV
vector 62  sim.host[12].batteryStats  capacity(relative)  ETV
vector 67  sim.host[13].batteryStats  capacity(relative)  ETV
vector 72  sim.host[14].batteryStats  capacity(relative)  ETV
vector 77  sim.host[15].batteryStats  capacity(relative)  ETV
vector 82  sim.host[16].batteryStats  capacity(relative)  ETV
vector 87  sim.host[17].batteryStats  capacity(relative)  ETV
vector 92  sim.host[18].batteryStats  capacity(relative)  ETV
vector 97  sim.host[19].batteryStats  capacity(relative)  ETV
2	0	0.666666666667
2	0.25	0.666666666667
2	0.5	0.666666666667
2	0.75	0.66646668998
2	1	0.6664
2	1.25	0.6664
2	1.5	0.6664
2	1.75	0.6664
2	2	0.666133333333
2	2.25	0.666133333333
2	2.5	0.666019628975
2	2.75	0.665945360937
2	3	0.665866666667
2	3.25	0.665866666667
2	3.5	0.665866666667
2	3.75	0.665670197101
2	4	0.6656
2	4.25	0.665533754275
2	4.5	0.665533754275
2	4.75	0.665533754275
2	5	0.665333333333
2	5.25	0.665287743238
2	5.5	0.665287743238
2	5.75	0.665133418585
2	6	0.665066666667
2	6.25	0.665000001449
2	6.5	0.664985248914
2	6.75	0.664985248914
2	7	0.6648
2	7.25	0.664733366102
2	7.5	0.664729106902
2	7.75	0.664729106902
2	8	0.664533333333
2	8.25	0.664526131793
2	8.5	0.664526131793
2	8.75	0.664366041341
2	9	0.664266666667
2	9.25	0.664266666667
2	9.5	0.664133350357
2	9.75	0.664108286387
2	10	0.664
2	10.25	0.664
2	10.5	0.664
2	10.75	0.664
2	11	0.663733333333
2	11.25	0.663733333333
2	11.5	0.663733333333
2	11.75	0.663733333333
2	12	0.663466666667
2	12.25	0.663466666667
2	12.5	0.663466666667
2	12.75	0.663466666667
2	13	0.6632
2	13.25	0.6632
2	13.5	0.6632
2	13.75	0.6632
2	14	0.662933333333
2	14.25	0.662933333333
2	14.5	0.662933333333
2	14.75	0.662933333333
2	15	0.662666666667
2	15.25	0.662666666667
2	15.5	0.662666666667
2	15.75	0.662666666667
2	16	0.6624
2	16.25	0.6624
2	16.5	0.6624
2	16.75	0.6624
2	17	0.662133333333
2	17.25	0.662133333333
2	17.5	0.662133333333
2	17.75	0.662133333333
2	18	0.661866666667
2	18.25	0.661866666667
2	18.5	0.661866666667
2	18.75	0.661866666667
2	19	0.6616
2	19.25	0.6616
2	19.5	0.6616
2	19.75	0.6616
2	20	0.661333333333
2	20.25	0.661333333333
2	20.5	0.661333333333
2	20.75	0.661333333333
2	21	0.661066666667
2	21.25	0.661066666667
2	21.5	0.661066666667
2	21.75	0.661066666667
2	22	0.6608
2	22.25	0.6608
2	22.5	0.6608
2	22.75	0.6608
2	23	0.660533333333
2	23.25	0.660533333333
2	23.5	0.660533333333
2	23.75	0.660533333333
2	24	0.660266666667
2	24.25	0.660266666667
2	24.5	0.660266666667
2	24.75	0.660266666667
2	25	0.66
2	25.25	0.66
2	25.5	0.66
2	25.75	0.66
2	26	0.659733333333
2	26.25	0.659733333333
2	26.5	0.659733333333
2	26.75	0.659733333333
2	27	0.659466666667
2	27.25	0.659466666667
2	27.5	0.659466666667
2	27.75	0.659466666667
2	28	0.6592
2	28.25	0.6592
2	28.5	0.6592
2	28.75	0.6592
2	29	0.658933333333
2	29.25	0.658933333333
2	29.5	0.658933333333
2	29.75	0.658933333333
2	30	0.658666666667
2	30.25	0.658666666667
2	30.5	0.658666666667
2	30.75	0.658666666667
2	31	0.6584
2	31.25	0.6584
2	31.5	0.6584
2	31.75	0.6584
2	32	0.658133333333
2	32.25	0.658133333333
2	32.5	0.658133333333
2	32.75	0.658133333333
2	33	0.657866666667
2	33.25	0.657866666667
2	33.5	0.657866666667
2	33.75	0.657866666667
2	34	0.6576
2	34.25	0.6576
2	34.5	0.6576
2	34.75	0.6576
2	35	0.657333333333
2	35.25	0.657333333333
2	35.5	0.657333333333
2	35.75	0.657333333333
2	36	0.657066666667
2	36.25	0.657066666667
2	36.5	0.657066666667
2	36.75	0.657066666667
2	37	0.6568
2	37.25	0.6568
2	37.5	0.6568
2	37.75	0.6568
2	38	0.656533333333
2	38.25	0.656533333333
2	38.5	0.656533333333
2	38.75	0.656533333333
2	39	0.656266666667
2	39.25	0.656266666667
2	39.5	0.656266666667
2	39.75	0.656266666667
2	40	0.656
2	40.25	0.656
2	40.5	0.656
2	40.75	0.656
2	41	0.655733333333
2	41.25	0.655733333333
2	41.5	0.655733333333
2	41.75	0.655733333333
2	42	0.655466666667
2	42.25	0.655466666667
2	42.5	0.655466666667
2	42.75	0.655466666667
2	43	0.6552
2	43.25	0.6552
2	43.5	0.6552
2	43.75	0.6552
2	44	0.654933333333
2	44.25	0.654933333333
2	44.5	0.654933333333
2	44.75	0.654933333333
2	45	0.654666666667
2	45.25	0.654666666667
2	45.5	0.654666666667
2	45.75	0.654666666667
2	46	0.6544
2	46.25	0.6544
2	46.5	0.6544
2	46.75	0.6544
2	47	0.654133333333
2	47.25	0.654133333333
2	47.5	0.654133333333
2	47.75	0.654133333333
2	48	0.653866666667
2	48.25	0.653866666667
2	48.5	0.653866666667
2	48.75	0.653866666667
2	49	0.6536
2	49.25	0.6536
2	49.5	0.6536
2	49.75	0.6536
2	50	0.653333333333
2	50.25	0.653333333333
2	50.5	0.653333333333
2	50.75	0.653333333333
2	51	0.653066666667
2	51.25	0.653066666667
2	51.5	0.653066666667
2	51.75	0.653066666667
2	52	0.6528
2	52.25	0.6528
2	52.5	0.6528
2	52.75	0.6528
2	53	0.652533333333
2	53.25	0.652533333333
2	53.5	0.652533333333
2	53.75	0.652533333333
2	54	0.652266666667
2	54.25	0.652266666667
2	54.5	0.652266666667
2	54.75	0.652266666667
2	55	0.652
2	55.25	0.652
2	55.5	0.652
2	55.75	0.652
2	56	0.651733333333
2	56.25	0.651733333333
2	56.5	0.651733333333
2	56.75	0.651733333333
2	57	0.651466666667
2	57.25	0.651466666667
2	57.5	0.651466666667
2	57.75	0.651466666667
2	58	0.6512
2	58.25	0.6512
2	58.5	0.6512
2	58.75	0.6512
2	59	0.650933333333
2	59.25	0.650933333333
2	59.5	0.650933333333
2	59.75	0.650933333333
2	60	0.650666666667
2	60.25	0.650666666667
2	60.5	0.650666666667
2	60.75	0.650666666667
2	61	0.6504
2	61.25	0.6504
2	61.5	0.6504
2	61.75	0.6504
2	62	0.650133333333
2	62.25	0.650133333333
2	62.5	0.650133333333
2	62.75	0.650133333333
2	63	0.649866666667
2	63.25	0.649866666667
2	63.5	0.649866666667
2	63.75	0.649866666667
2	64	0.6496
2	64.25	0.6496
2	64.5	0.6496
2	64.75	0.6496
2	65	0.649333333333
2	65.25	0.649333333333
2	65.5	0.649333333333
2	65.75	0.649333333333
2	66	0.649066666667
2	66.25	0.649066666667
2	66.5	0.649066666667
2	66.75	0.649066666667
2	67	0.6488
2	67.25	0.6488
2	67.5	0.6488
2	67.75	0.6488
2	68	0.648533333333
2	68.25	0.648533333333
2	68.5	0.648533333333
2	68.75	0.648533333333
2	69	0.648266666667
2	69.25	0.648266666667
2	69.5	0.648266666667
2	69.75	0.648266666667
2	70	0.648
2	70.25	0.648
2	70.5	0.648
2	70.75	0.648
2	71	0.647733333333
2	71.25	0.647733333333
2	71.5	0.647733333333
2	71.75	0.647733333333
2	72	0.647466666667
2	72.25	0.647466666667
2	72.5	0.647466666667
2	72.75	0.647466666667
2	73	0.6472
2	73.25	0.6472
2	73.5	0.6472
2	73.75	0.6472
2	74	0.646933333333
2	74.25	0.646933333333
2	74.5	0.646933333333
2	74.75	0.646933333333
2	75	0.646666666667
2	75.25	0.646666666667
2	75.5	0.646666666667
2	75.75	0.646666666667
2	76	0.6464
2	76.25	0.6464
2	76.5	0.6464
2	76.75	0.6464
2	77	0.646133333333
2	77.25	0.646133333333
2	77.5	0.646133333333
2	77.75	0.646133333333
2	78	0.645866666667
2	78.25	0.645866666667
2	78.5	0.645866666667
2	78.75	0.645866666667
2	79	0.6456
2	79.25	0.6456
2	79.5	0.6456
2	79.75	0.6456
2	80	0.645333333333
2	80.25	0.645333333333
2	80.5	0.645333333333
2	80.75	0.645333333333
2	81	0.645066666667
2	81.25	0.645066666667
2	81.5	0.645066666667
2	81.75	0.645066666667
2	82	0.6448
2	82.25	0.6448
2	82.5	0.6448
2	82.75	0.6448
2	83	0.644533333333
2	83.25	0.644533333333
2	83.5	0.644533333333
2	83.75	0.644533333333
2	84	0.644266666667
2	84.25	0.644266666667
2	84.5	0.644266666667
2	84.75	0.644266666667
2	85	0.644
2	85.25	0.644
2	85.5	0.644
2	85.75	0.644
2	86	0.643733333333
2	86.25	0.643733333333
2	86.5	0.643733333333
2	86.75	0.643733333333
2	87	0.643466666667
2	87.25	0.643466666667
2	87.5	0.643466666667
2	87.75	0.643466666667
2	88	0.6432
2	88.25	0.6432
2	88.5	0.6432
2	88.75	0.6432
2	89	0.642933333333
2	89.25	0.642933333333
2	89.5	0.642933333333
2	89.75	0.642933333333
2	90	0.642666666667
2	90.25	0.642666666667
2	90.5	0.642666666667
2	90.75	0.642666666667
2	91	0.6424
2	91.25	0.6424
2	91.5	0.6424
2	91.75	0.6424
2	92	0.642133333333
2	92.25	0.642133333333
2	92.5	0.642133333333
2	92.75	0.642133333333
2	93	0.641866666667
2	93.25	0.641866666667
2	93.5	0.641866666667
2	93.75	0.641866666667
2	94	0.6416
2	94.25	0.6416
2	94.5	0.6416
2	94.75	0.6416
2	95	0.641333333333
2	95.25	0.641333333333
2	95.5	0.641333333333
2	95.75	0.641333333333
2	96	0.641066666667
2	96.25	0.641066666667
2	96.5	0.641066666667
2	96.75	0.641066666667
2	97	0.6408
2	97.25	0.6408
2	97.5	0.6408
2	97.75	0.6408
2	98	0.640533333333
2	98.25	0.640533333333
2	98.5	0.640533333333
2	98.75	0.640533333333
2	99	0.640266666667
2	99.25	0.640266666667
2	99.5	0.640266666667
2	99.75	0.640266666667
2	100	0.64
2	100.25	0.64
2	100.5	0.64
2	100.75	0.64
2	101	0.639733333333
2	101.25	0.639733333333
2	101.5	0.639733333333
2	101.75	0.639733333333
2	102	0.639466666667
2	102.25	0.639466666667
2	102.5	0.639466666667
2	102.75	0.639466666667
2	103	0.6392
2	103.25	0.6392
2	103.5	0.6392
2	103.75	0.6392
2	104	0.638933333333
2	104.25	0.638933333333
2	104.5	0.638933333333
2	104.75	0.638933333333
2	105	0.638666666667
2	105.25	0.638666666667
2	105.5	0.638666666667
2	105.75	0.638666666667
2	106	0.6384
2	106.25	0.6384
2	106.5	0.6384
2	106.75	0.6384
2	107	0.638133333333
2	107.25	0.638133333333
2	107.5	0.638133333333
2	107.75	0.638133333333
2	108	0.637866666667
2	108.25	0.637866666667
2	108.5	0.637866666667
2	108.75	0.637866666667
2	109	0.6376
2	109.25	0.6376
2	109.5	0.6376
2	109.75	0.6376
2	110	0.637333333333
2	110.25	0.637333333333
2	110.5	0.637333333333
2	110.75	0.637333333333
2	111	0.637066666667
2	111.25	0.637066666667
2	111.5	0.637066666667
2	111.75	0.637066666667
2	112	0.6368
2	112.25	0.6368
2	112.5	0.6368
2	112.75	0.6368
2	113	0.636533333333
2	113.25	0.636533333333
2	113.5	0.636533333333
2	113.75	0.636533333333
2	114	0.636266666667
2	114.25	0.636266666667
2	114.5	0.636266666667
2	114.75	0.636266666667
2	115	0.636
2	115.25	0.636
2	115.5	0.636
2	115.75	0.636
2	116	0.635733333333
2	116.25	0.635733333333
2	116.5	0.635733333333
2	116.75	0.635733333333
2	117	0.635466666667
2	117.25	0.635466666667
2	117.5	0.635466666667
2	117.75	0.635466666667
2	118	0.6352
2	118.25	0.6352
2	118.5	0.6352
2	118.75	0.6352
2	119	0.634933333333
2	119.25	0.634933333333
2	119.5	0.634933333333
2	119.75	0.634933333333
2	120	0.634666666667
2	120.25	0.634666666667
2	120.5	0.634666666667
2	120.75	0.634666666667
2	121	0.6344
2	121.25	0.6344
2	121.5	0.6344
2	121.75	0.6344
2	122	0.634133333333
2	122.25	0.634133333333
2	122.5	0.634133333333
2	122.75	0.634133333333
2	123	0.633866666667
2	123.25	0.633866666667
2	123.5	0.633866666667
2	123.75	0.633866666667
2	124	0.6336
2	124.25	0.6336
2	124.5	0.6336
2	124.75	0.6336
2	125	0.633333333333
2	125.25	0.633333333333
2	125.5	0.633333333333
2	125.75	0.633333333333
2	126	0.633066666667
2	126.25	0.633066666667
2	126.5	0.633066666667
2	126.75	0.633066666667
2	127	0.6328
2	127.25	0.6328
2	127.5	0.6328
2	127.75	0.6328
2	128	0.632533333333
2	128.25	0.632533333333
2	128.5	0.632533333333
2	128.75	0.632533333333
2	129	0.632266666667
2	129.25	0.632266666667
2	129.5	0.632266666667
2	129.75	0.632266666667
2	130	0.632
2	130.25	0.632
2	130.5	0.632
2	130.75	0.632
2	131	0.631733333333
2	131.25	0.631733333333
2	131.5	0.631733333333
2	131.75	0.631733333333
2	132	0.631466666667
2	132.25	0.631466666667
2	132.5	0.631466666667
2	132.75	0.631466666667
2	133	0.6312
2	133.25	0.6312
2	133.5	0.6312
2	133.75	0.6312
2	134	0.630933333333
2	134.25	0.630933333333
2	134.5	0.630933333333
2	134.75	0.630933333333
2	135	0.630666666667
2	135.25	0.630666666667
2	135.5	0.630666666667
2	135.75	0.630666666667
2	136	0.6304
2	136.25	0.6304
2	136.5	0.6304
2	136.75	0.6304
2	137	0.630133333333
2	137.25	0.630133333333
2	137.5	0.630133333333
2	137.75	0.630133333333
2	138	0.629866666667
2	138.25	0.629866666667
2	138.5	0.629866666667
2	138.75	0.629866666667
2	139	0.6296
2	139.25	0.6296
2	139.5	0.6296
2	139.75	0.6296
2	140	0.629333333333
2	140.25	0.629333333333
2	140.5	0.629333333333
2	140.75	0.629333333333
2	141	0.629066666667
2	141.25	0.629066666667
2	141.5	0.629066666667
2	141.75	0.629066666667
2	142	0.6288
2	142.25	0.6288
2	142.5	0.6288
2	142.75	0.6288
2	143	0.628533333333
2	143.25	0.628533333333
2	143.5	0.628533333333
2	143.75	0.628533333333
2	144	0.628266666667
2	144.25	0.628266666667
2	144.5	0.628266666667
2	144.75	0.628266666667
2	145	0.628
2	145.25	0.628
2	145.5	0.628
2	145.75	0.628
2	146	0.627733333333
2	146.25	0.627733333333
2	146.5	0.627733333333
2	146.75	0.627733333333
2	147	0.627466666667
2	147.25	0.627466666667
2	147.5	0.627466666667
2	147.75	0.627466666667
2	148	0.6272
2	148.25	0.6272
2	148.5	0.6272
2	148.75	0.6272
2	149	0.626933333333
2	149.25	0.626933333333
2	149.5	0.626933333333
2	149.75	0.626933333333
2	150	0.626666666667
2	150.25	0.626666666667
2	150.5	0.626666666667
2	150.75	0.626666666667
2	151	0.6264
2	151.25	0.6264
2	151.5	0.6264
2	151.75	0.6264
2	152	0.626133333333
2	152.25	0.626133333333
2	152.5	0.626133333333
2	152.75	0.626133333333
2	153	0.625866666667
2	153.25	0.625866666667
2	153.5	0.625866666667
2	153.75	0.625866666667
2	154	0.6256
2	154.25	0.6256
2	154.5	0.6256
2	154.75	0.6256
2	155	0.625333333333
2	155.25	0.625333333333
2	155.5	0.625333333333
2	155.75	0.625333333333
2	156	0.625066666667
2	156.25	0.625066666667
2	156.5	0.625066666667
2	156.75	0.625066666667
2	157	0.6248
2	157.25	0.6248
2	157.5	0.6248
2	157.75	0.6248
2	158	0.624533333333
2	158.25	0.624533333333
2	158.5	0.624533333333
2	158.75	0.624533333333
2	159	0.624266666667
2	159.25	0.624266666667
2	159.5	0.624266666667
2	159.75	0.624266666667
2	160	0.624
2	160.25	0.624
2	160.5	0.624
2	160.75	0.624
2	161	0.623733333333
2	161.25	0.623733333333
2	161.5	0.623733333333
2	161.75	0.623733333333
2	162	0.623466666667
2	162.25	0.623466666667
2	162.5	0.623466666667
2	162.75	0.623466666667
2	163	0.6232
2	163.25	0.6232
2	163.5	0.6232
2	163.75	0.6232
2	164	0.622933333333
2	164.25	0.622933333333
2	164.5	0.622933333333
2	164.75	0.622933333333
2	165	0.622666666667
2	165.25	0.622666666667
2	165.5	0.622666666667
2	165.75	0.622666666667
2	166	0.6224
2	166.25	0.6224
2	166.5	0.6224
2	166.75	0.6224
2	167	0.622133333333
2	167.25	0.622133333333
2	167.5	0.622133333333
2	167.75	0.622133333333
2	168	0.621866666667
2	168.25	0.621866666667
2	168.5	0.621866666667
2	168.75	0.621866666667
2	169	0.6216
2	169.25	0.6216
2	169.5	0.6216
2	169.75	0.6216
2	170	0.621333333333
2	170.25	0.621333333333
2	170.5	0.621333333333
2	170.75	0.621333333333
2	171	0.621066666667
2	171.25	0.621066666667
2	171.5	0.621066666667
2	171.75	0.621066666667
2	172	0.6208
2	172.25	0.6208
2	172.5	0.6208
2	172.75	0.6208
2	173	0.620533333333
2	173.25	0.620533333333
2	173.5	0.620533333333
2	173.75	0.620533333333
2	174	0.620266666667
2	174.25	0.620266666667
2	174.5	0.620266666667
2	174.75	0.620266666667
2	175	0.62
2	175.25	0.62
2	175.5	0.62
2	175.75	0.62
2	176	0.619733333333
2	176.25	0.619733333333
2	176.5	0.619733333333
2	176.75	0.619733333333
2	177	0.619466666667
2	177.25	0.619466666667
2	177.5	0.619466666667
2	177.75	0.619466666667
2	178	0.6192
2	178.25	0.6192
2	178.5	0.6192
2	178.75	0.6192
2	179	0.618933333333
2	179.25	0.618933333333
2	179.5	0.618933333333
2	179.75	0.618933333333
2	180	0.618666666667
2	180.25	0.618666666667
2	180.5	0.618666666667
2	180.75	0.618666666667
2	181	0.6184
2	181.25	0.6184
2	181.5	0.6184
2	181.75	0.6184
2	182	0.618133333333
2	182.25	0.618133333333
2	182.5	0.618133333333
2	182.75	0.618133333333
2	183	0.617866666667
2	183.25	0.617866666667
2	183.5	0.617866666667
2	183.75	0.617866666667
2	184	0.6176
2	184.25	0.6176
2	184.5	0.6176
2	184.75	0.6176
2	185	0.617333333333
2	185.25	0.617333333333
2	185.5	0.617333333333
2	185.75	0.617333333333
2	186	0.617066666667
2	186.25	0.617066666667
2	186.5	0.617066666667
2	186.75	0.617066666667
2	187	0.6168
2	187.25	0.6168
2	187.5	0.6168
2	187.75	0.6168
2	188	0.616533333333
2	188.25	0.616533333333
2	188.5	0.616533333333
2	188.75	0.616533333333
2	189	0.616266666667
2	189.25	0.616266666667
2	189.5	0.616266666667
2	189.75	0.616266666667
2	190	0.616
2	190.25	0.616
2	190.5	0.616
2	190.75	0.616
2	191	0.615733333333
2	191.25	0.615733333333
2	191.5	0.615733333333
2	191.75	0.615733333333
2	192	0.615466666667
2	192.25	0.615466666667
2	192.5	0.615466666667
2	192.75	0.615466666667
2	193	0.6152
2	193.25	0.6152
2	193.5	0.6152
2	193.75	0.6152
2	194	0.614933333333
2	194.25	0.614933333333
2	194.5	0.614933333333
2	194.75	0.614933333333
2	195	0.614666666667
2	195.25	0.614666666667
2	195.5	0.614666666667
2	195.75	0.614666666667
2	196	0.6144
2	196.25	0.6144
2	196.5	0.6144
2	196.75	0.6144
2	197	0.614133333333
2	197.25	0.614133333333
2	197.5	0.614133333333
2	197.75	0.614133333333
2	198	0.613866666667
2	198.25	0.613866666667
2	198.5	0.613866666667
2	198.75	0.613866666667
2	199	0.6136
2	199.25	0.6136
2	199.5	0.6136
2	199.75	0.6136
2	200	0.613333333333
2	200.25	0.613333333333
2	200.5	0.613333333333
2	200.75	0.613333333333
2	201	0.613066666667
2	201.25	0.613066666667
2	201.5	0.613066666667
2	201.75	0.613066666667
2	202	0.6128
2	202.25	0.6128
2	202.5	0.6128
2	202.75	0.6128
2	203	0.612533333333
2	203.25	0.612533333333
2	203.5	0.612533333333
2	203.75	0.612533333333
2	204	0.612266666667
2	204.25	0.612266666667
2	204.5	0.612266666667
2	204.75	0.612266666667
2	205	0.612
2	205.25	0.612
2	205.5	0.612
2	205.75	0.612
2	206	0.611733333333
2	206.25	0.611733333333
2	206.5	0.611733333333
2	206.75	0.611733333333
2	207	0.611466666667
2	207.25	0.611466666667
2	207.5	0.611466666667
2	207.75	0.611466666667
2	208	0.6112
2	208.25	0.6112
2	208.5	0.6112
2	208.75	0.6112
2	209	0.610933333333
2	209.25	0.610933333333
2	209.5	0.610933333333
2	209.75	0.610933333333
2	210	0.610666666667
2	210.25	0.610666666667
2	210.5	0.610666666667
2	210.75	0.610666666667
2	211	0.6104
2	211.25	0.6104
2	211.5	0.6104
2	211.75	0.6104
2	212	0.610133333333
2	212.25	0.610133333333
2	212.5	0.610133333333
2	212.75	0.610133333333
2	213	0.609866666667
2	213.25	0.609866666667
2	213.5	0.609866666667
2	213.75	0.609866666667
2	214	0.6096
2	214.25	0.6096
2	214.5	0.6096
2	214.75	0.6096
2	215	0.609333333333
2	215.25	0.609333333333
2	215.5	0.609333333333
2	215.75	0.609333333333
2	216	0.609066666667
2	216.25	0.609066666667
2	216.5	0.609066666667
2	216.75	0.609066666667
2	217	0.6088
2	217.25	0.6088
2	217.5	0.6088
2	217.75	0.6088
2	218	0.608533333333
2	218.25	0.608533333333
2	218.5	0.608533333333
2	218.75	0.608533333333
2	219	0.608266666667
2	219.25	0.608266666667
2	219.5	0.608266666667
2	219.75	0.608266666667
2	220	0.608
2	220.25	0.608
2	220.5	0.608
2	220.75	0.608
2	221	0.607733333333
2	221.25	0.607733333333
2	221.5	0.607733333333
2	221.75	0.607733333333
2	222	0.607466666667
2	222.25	0.607466666667
2	222.5	0.607466666667
2	222.75	0.607466666667
2	223	0.6072
2	223.25	0.6072
2	223.5	0.6072
2	223.75	0.6072
2	224	0.606933333333
2	224.25	0.606933333333
2	224.5	0.606933333333
2	224.75	0.606933333333
2	225	0.606666666667
2	225.25	0.606666666667
2	225.5	0.606666666667
2	225.75	0.606666666667
2	226	0.6064
2	226.25	0.6064
2	226.5	0.6064
2	226.75	0.6064
2	227	0.606133333333
2	227.25	0.606133333333
2	227.5	0.606133333333
2	227.75	0.606133333333
2	228	0.605866666667
2	228.25	0.605866666667
2	228.5	0.605866666667
2	228.75	0.605866666667
2	229	0.6056
2	229.25	0.6056
2	229.5	0.6056
2	229.75	0.6056
2	230	0.605333333333
2	230.25	0.605333333333
2	230.5	0.605333333333
2	230.75	0.605333333333
2	231	0.605066666667
2	231.25	0.605066666667
2	231.5	0.605066666667
2	231.75	0.605066666667
2	232	0.6048
2	232.25	0.6048
2	232.5	0.6048
2	232.75	0.6048
2	233	0.604533333333
2	233.25	0.604533333333
2	233.5	0.604533333333
2	233.75	0.604533333333
2	234	0.604266666667
2	234.25	0.604266666667
2	234.5	0.604266666667
2	234.75	0.604266666667
2	235	0.604
2	235.25	0.604
2	235.5	0.604
2	235.75	0.604
2	236	0.603733333333
2	236.25	0.603733333333
2	236.5	0.603733333333
2	236.75	0.603733333333
2	237	0.603466666667
2	237.25	0.603466666667
2	237.5	0.603466666667
2	237.75	0.603466666667
2	238	0.6032
2	238.25	0.6032
2	238.5	0.6032
2	238.75	0.6032
2	239	0.602933333333
2	239.25	0.602933333333
2	239.5	0.602933333333
2	239.75	0.602933333333
2	240	0.602666666667
2	240.25	0.602666666667
2	240.5	0.602666666667
2	240.75	0.602666666667
2	241	0.6024
2	241.25	0.6024
2	241.5	0.6024
2	241.75	0.6024
2	242	0.602133333333
2	242.25	0.602133333333
2	242.5	0.602133333333
2	242.75	0.602133333333
2	243	0.601866666667
2	243.25	0.601866666667
2	243.5	0.601866666667
2	243.75	0.601866666667
2	244	0.6016
2	244.25	0.6016
2	244.5	0.6016
2	244.75	0.6016
2	245	0.601333333333
2	245.25	0.601333333333
2	245.5	0.601333333333
2	245.75	0.601333333333
2	246	0.601066666667
2	246.25	0.601066666667
2	246.5	0.601066666667
2	246.75	0.601066666667
2	247	0.6008
2	247.25	0.6008
2	247.5	0.6008
2	247.75	0.6008
2	248	0.600533333333
2	248.25	0.600533333333
2	248.5	0.600533333333
2	248.75	0.600533333333
2	249	0.600266666667
2	249.25	0.600266666667
2	249.5	0.600266666667
2	249.75	0.600266666667
2	250	0.6
2	250.25	0.6
2	250.5	0.6
2	250.75	0.6
2	251	0.599733333333
2	251.25	0.599733333333
2	251.5	0.599733333333
2	251.75	0.599733333333
2	252	0.599466666667
2	252.25	0.599466666667
2	252.5	0.599466666667
2	252.75	0.599466666667
2	253	0.5992
2	253.25	0.5992
2	253.5	0.5992
2	253.75	0.5992
2	254	0.598933333333
2	254.25	0.598933333333
2	254.5	0.598933333333
2	254.75	0.598933333333
2	255	0.598666666667
2	255.25	0.598666666667
2	255.5	0.598666666667
2	255.75	0.598666666667
2	256	0.5984
2	256.25	0.5984
2	256.5	0.5984
2	256.75	0.5984
2	257	0.598133333333
2	257.25	0.598133333333
2	257.5	0.598133333333
2	257.75	0.598133333333
2	258	0.597866666667
2	258.25	0.597866666667
2	258.5	0.597866666667
2	258.75	0.597866666667
2	259	0.5976
2	259.25	0.5976
2	259.5	0.5976
2	259.75	0.5976
2	260	0.597333333333
2	260.25	0.597333333333
2	260.5	0.597333333333
2	260.75	0.597333333333
2	261	0.597066666667
2	261.25	0.597066666667
2	261.5	0.597066666667
2	261.75	0.597066666667
2	262	0.5968
2	262.25	0.5968
2	262.5	0.5968
2	262.75	0.5968
2	263	0.596533333333
2	263.25	0.596533333333
2	263.5	0.596533333333
2	263.75	0.596533333333
2	264	0.596266666667
2	264.25	0.596266666667
2	264.5	0.596266666667
2	264.75	0.596266666667
2	265	0.596
2	265.25	0.596
2	265.5	0.596
2	265.75	0.596
2	266	0.595733333333
2	266.25	0.595733333333
2	266.5	0.595733333333
2	266.75	0.595733333333
2	267	0.595466666667
2	267.25	0.595466666667
2	267.5	0.595466666667
2	267.75	0.595466666667
2	268	0.5952
2	268.25	0.5952
2	268.5	0.5952
2	268.75	0.5952
2	269	0.594933333333
2	269.25	0.594933333333
2	269.5	0.594933333333
2	269.75	0.594933333333
2	270	0.594666666667
2	270.25	0.594666666667
2	270.5	0.594666666667
2	270.75	0.594666666667
2	271	0.5944
2	271.25	0.5944
2	271.5	0.5944
2	271.75	0.5944
2	272	0.594133333333
2	272.25	0.594133333333
2	272.5	0.594133333333
2	272.75	0.594133333333
2	273	0.593866666667
2	273.25	0.593866666667
2	273.5	0.593866666667
2	273.75	0.593866666667
2	274	0.5936
2	274.25	0.5936
2	274.5	0.5936
2	274.75	0.5936
2	275	0.593333333333
2	275.25	0.593333333333
2	275.5	0.593333333333
2	275.75	0.593333333333
2	276	0.593066666667
2	276.25	0.593066666667
2	276.5	0.593066666667
2	276.75	0.593066666667
2	277	0.5928
2	277.25	0.5928
2	277.5	0.5928
2	277.75	0.5928
2	278	0.592533333333
2	278.25	0.592533333333
2	278.5	0.592533333333
2	278.75	0.592533333333
2	279	0.592266666667
2	279.25	0.592266666667
2	279.5	0.592266666667
2	279.75	0.592266666667
2	280	0.592
2	280.25	0.592
2	280.5	0.592
2	280.75	0.592
2	281	0.591733333333
2	281.25	0.591733333333
2	281.5	0.591733333333
2	281.75	0.591733333333
2	282	0.591466666667
2	282.25	0.591466666667
2	282.5	0.591466666667
2	282.75	0.591466666667
2	283	0.5912
2	283.25	0.5912
2	283.5	0.5912
2	283.75	0.5912
2	284	0.590933333333
2	284.25	0.590933333333
2	284.5	0.590933333333
2	284.75	0.590933333333
2	285	0.590666666667
2	285.25	0.590666666667
2	285.5	0.590666666667
2	285.75	0.590666666667
2	286	0.5904
2	286.25	0.5904
2	286.5	0.5904
2	286.75	0.5904
2	287	0.590133333333
2	287.25	0.590133333333
2	287.5	0.590133333333
2	287.75	0.590133333333
2	288	0.589866666667
2	288.25	0.589866666667
2	288.5	0.589866666667
2	288.75	0.589866666667
2	289	0.5896
2	289.25	0.5896
2	289.5	0.5896
2	289.75	0.5896
2	290	0.589333333333
2	290.25	0.589333333333
2	290.5	0.589333333333
2	290.75	0.589333333333
2	291	0.589066666667
2	291.25	0.589066666667
2	291.5	0.589066666667
2	291.75	0.589066666667
2	292	0.5888
2	292.25	0.5888
2	292.5	0.5888
2	292.75	0.5888
2	293	0.588533333333
2	293.25	0.588533333333
2	293.5	0.588533333333
2	293.75	0.588533333333
2	294	0.588266666667
2	294.25	0.588266666667
2	294.5	0.588266666667
2	294.75	0.588266666667
2	295	0.588
2	295.25	0.588
2	295.5	0.588
2	295.75	0.588
2	296	0.587733333333
2	296.25	0.587733333333
2	296.5	0.587733333333
2	296.75	0.587733333333
2	297	0.587466666667
2	297.25	0.587466666667
2	297.5	0.587466666667
2	297.75	0.587466666667
2	298	0.5872
2	298.25	0.5872
2	298.5	0.5872
2	298.75	0.5872
2	299	0.586933333333
2	299.25	0.586933333333
2	299.5	0.586933333333
2	299.75	0.586933333333
2	300	0.586666666667
2	300.25	0.586666666667
2	300.5	0.586666666667
2	300.75	0.586666666667
2	301	0.5864
2	301.25	0.5864
2	301.5	0.5864
2	301.75	0.5864
2	302	0.586133333333
2	302.25	0.586133333333
2	302.5	0.586133333333
2	302.75	0.586133333333
2	303	0.585866666667
2	303.25	0.585866666667
2	303.5	0.585866666667
2	303.75	0.585866666667
2	304	0.5856
2	304.25	0.5856
2	304.5	0.5856
2	304.75	0.5856
2	305	0.585333333333
2	305.25	0.585333333333
2	305.5	0.585333333333
2	305.75	0.585333333333
2	306	0.585066666667
2	306.25	0.585066666667
2	306.5	0.585066666667
2	306.75	0.585066666667
2	307	0.5848
2	307.25	0.5848
2	307.5	0.5848
2	307.75	0.5848
2	308	0.584533333333
2	308.25	0.584533333333
2	308.5	0.584533333333
2	308.75	0.584533333333
2	309	0.584266666667
2	309.25	0.584266666667
2	309.5	0.584266666667
2	309.75	0.584266666667
2	310	0.584
2	310.25	0.584
2	310.5	0.584
2	310.75	0.584
2	311	0.583733333333
2	311.25	0.583733333333
2	311.5	0.583733333333
2	311.75	0.583733333333
2	312	0.583466666667
2	312.25	0.583466666667
2	312.5	0.583466666667
2	312.75	0.583466666667
2	313	0.5832
2	313.25	0.5832
2	313.5	0.5832
2	313.75	0.5832
2	314	0.582933333333
2	314.25	0.582933333333
2	314.5	0.582933333333
2	314.75	0.582933333333
2	315	0.582666666667
2	315.25	0.582666666667
2	315.5	0.582666666667
2	315.75	0.582666666667
2	316	0.5824
2	316.25	0.5824
2	316.5	0.5824
2	316.75	0.5824
2	317	0.582133333333
2	317.25	0.582133333333
2	317.5	0.582133333333
2	317.75	0.582133333333
2	318	0.581866666667
2	318.25	0.581866666667
2	318.5	0.581866666667
2	318.75	0.581866666667
2	319	0.5816
2	319.25	0.5816
2	319.5	0.5816
2	319.75	0.5816
2	320	0.581333333333
2	320.25	0.581333333333
2	320.5	0.581333333333
2	320.75	0.581333333333
2	321	0.581066666667
2	321.25	0.581066666667
2	321.5	0.581066666667
2	321.75	0.581066666667
2	322	0.5808
2	322.25	0.5808
2	322.5	0.5808
2	322.75	0.5808
2	323	0.580533333333
2	323.25	0.580533333333
2	323.5	0.580533333333
2	323.75	0.580533333333
2	324	0.580266666667
2	324.25	0.580266666667
2	324.5	0.580266666667
2	324.75	0.580266666667
2	325	0.58
2	325.25	0.58
2	325.5	0.58
2	325.75	0.58
2	326	0.579733333333
2	326.25	0.579733333333
2	326.5	0.579733333333
2	326.75	0.579733333333
2	327	0.579466666667
2	327.25	0.579466666667
2	327.5	0.579466666667
2	327.75	0.579466666667
2	328	0.5792
2	328.25	0.5792
2	328.5	0.5792
2	328.75	0.5792
2	329	0.578933333333
2	329.25	0.578933333333
2	329.5	0.578933333333
2	329.75	0.578933333333
2	330	0.578666666667
2	330.25	0.578666666667
2	330.5	0.578666666667
2	330.75	0.578666666667
2	331	0.5784
2	331.25	0.5784
2	331.5	0.5784
2	331.75	0.5784
2	332	0.578133333333
2	332.25	0.578133333333
2	332.5	0.578133333333
2	332.75	0.578133333333
2	333	0.577866666667
2	333.25	0.577866666667
2	333.5	0.577866666667
2	333.75	0.577866666667
2	334	0.5776
2	334.25	0.5776
2	334.5	0.5776
2	334.75	0.5776
2	335	0.577333333333
2	335.25	0.577333333333
2	335.5	0.577333333333
2	335.75	0.577333333333
2	336	0.577066666667
2	336.25	0.577066666667
2	336.5	0.577066666667
2	336.75	0.577066666667
2	337	0.5768
2	337.25	0.5768
2	337.5	0.5768
2	337.75	0.5768
2	338	0.576533333333
2	338.25	0.576533333333
2	338.5	0.576533333333
2	338.75	0.576533333333
2	339	0.576266666667
2	339.25	0.576266666667
2	339.5	0.576266666667
2	339.75	0.576266666667
2	340	0.576
2	340.25	0.576
2	340.5	0.576
2	340.75	0.576
2	341	0.575733333333
2	341.25	0.575733333333
2	341.5	0.575733333333
2	341.75	0.575733333333
2	342	0.575466666667
2	342.25	0.575466666667
2	342.5	0.575466666667
2	342.75	0.575466666667
2	343	0.5752
2	343.25	0.5752
2	343.5	0.5752
2	343.75	0.5752
2	344	0.574933333333
2	344.25	0.574933333333
2	344.5	0.574933333333
2	344.75	0.574933333333
2	345	0.574666666667
2	345.25	0.574666666667
2	345.5	0.574666666667
2	345.75	0.574666666667
2	346	0.5744
2	346.25	0.5744
2	346.5	0.5744
2	346.75	0.5744
2	347	0.574133333333
2	347.25	0.574133333333
2	347.5	0.574133333333
2	347.75	0.574133333333
2	348	0.573866666667
2	348.25	0.573866666667
2	348.5	0.573866666667
2	348.75	0.573866666667
2	349	0.5736
2	349.25	0.5736
2	349.5	0.5736
2	349.75	0.5736
2	350	0.573333333333
2	350.25	0.573333333333
2	350.5	0.573333333333
2	350.75	0.573333333333
2	351	0.573066666667
2	351.25	0.573066666667
2	351.5	0.573066666667
2	351.75	0.573066666667
2	352	0.5728
2	352.25	0.5728
2	352.5	0.5728
2	352.75	0.5728
2	353	0.572533333333
2	353.25	0.572533333333
2	353.5	0.572533333333
2	353.75	0.572533333333
2	354	0.572266666667
2	354.25	0.572266666667
2	354.5	0.572266666667
2	354.75	0.572266666667
2	355	0.572
2	355.25	0.572
2	355.5	0.572