version 2
run One-0-20090924-13:56:35-18863
attr configname One
attr datetime 20090924-13:56:35
attr experiment One
attr inifile omnetpp.ini
attr iterationvars ""
attr iterationvars2 $repetition=0
attr measurement ""
attr network sim
attr processid 18863
attr repetition 0
attr replication #0
attr resultdir results
attr runnumber 0
attr seedset 0

vector 2  sim.host[0].batteryStats  capacity(relative)  ETV
vector 7  sim.host[1].batteryStats  capacity(relative)  ETV
2	0	0	0.666666666667
2	0	0	0.666666666667
2	7	1	0.6665
2	9	2	0.666333333333
2	19	2.880054674599	0.666186657554
2	21	2.880910674599	0.666186457821
2	36	2.88776870861	0.666185314815
2	38	2.88804070861	0.666185215082
2	48	2.88805070861	0.666185213415
2	50	2.88829870861	0.666185155549
2	58	2.88830870861	0.666185153882
2	60	2.88916470861	0.666184840015
2	72	2.88917470861	0.666184838349
2	74	2.88942270861	0.666184780482
2	84	3	0.666166350933
2	86	4	0.665999684267
2	95	4.798082001126	0.6658666706
2	97	4.798938001126	0.665866356733
2	114	4.803971656903	0.665865517791
2	116	4.804243656903	0.665865454324
2	124	4.804253656903	0.665865452657
2	126	4.804501656903	0.665865361724
2	136	4.804511656903	0.665865360057
2	138	4.805367656903	0.665865160324
2	148	4.805377656903	0.665865158657
2	150	4.805625656903	0.665865067724
2	158	5	0.665832672
2	160	6	0.665666005333
2	162	7	0.665499338667
2	164	8	0.665332672
2	166	9	0.665166005333
2	168	10	0.664999338667
2	169	10	0.664999338667
7	0	0	0.666666666667
7	0	0	0.666666666667
7	8	1	0.6665
7	10	2	0.666333333333
7	18	2.880054674599	0.666186657554
7	20	2.880910674599	0.666186343688
7	37	2.88776870861	0.666185200682
7	39	2.88804070861	0.666185137215
7	47	2.88805070861	0.666185135549
7	49	2.88829870861	0.666185044615
7	59	2.88830870861	0.666185042949
7	61	2.88916470861	0.666184843215
7	71	2.88917470861	0.666184841549
7	73	2.88942270861	0.666184750615
7	85	3	0.666166321067
7	87	4	0.6659996544
7	96	4.798082001126	0.665866640733
7	98	4.798938001126	0.665866441
7	113	4.803971656903	0.665865602057
7	115	4.804243656903	0.665865502324
7	125	4.804253656903	0.665865500657
7	127	4.804501656903	0.665865442791
7	135	4.804511656903	0.665865441124
7	137	4.805367656903	0.665865127257
7	149	4.805377656903	0.665865125591
7	151	4.805625656903	0.665865067724
7	159	5	0.665832672
7	161	6	0.665666005333
7	163	7	0.665499338667
7	165	8	0.665332672
7	167	9	0.665166005333
7	169	10	0.664999338667
