version 2
run Five-0-20090819-10:05:29-7325
attr configname Five
attr datetime 20090819-10:05:29
attr experiment Five
attr inifile omnetpp.ini
attr iterationvars ""
attr iterationvars2 $repetition=0
attr measurement ""
attr network sim
attr processid 7325
attr repetition 0
attr replication #0
attr resultdir results
attr runnumber 0
attr seedset 0

vector 2  sim.host[0].batteryStats  capacity(relative)  ETV
vector 7  sim.host[1].batteryStats  capacity(relative)  ETV
vector 12  sim.host[2].batteryStats  capacity(relative)  ETV
2	0	1
2	0	1
2	1	0.998611111111
2	1.00624227393	0.998602441286
2	1.00709827393	0.998103107953
2	1.00748827393	0.998102566286
2	1.00834427393	0.997603232953
2	1.00869427393	0.997602746842
2	1.00955027393	0.997103413508
2	1.00964027393	0.997103288508
2	1.01049627393	0.996603955175
2	1.01092627393	0.996603357953
2	1.01178227393	0.99610402462
2	1.01185227393	0.996103927397
2	1.01212427393	0.995975482953
2	1.01213427393	0.995975469064
2	1.01238227393	0.995830802397
2	1.01239227393	0.995830788508
2	1.01324827393	0.995426566286
2	1.01325827393	0.995426552397
2	1.01350627393	0.995281885731
2	1.01404981529	0.995281130812
2	1.01432181529	0.995152686368
2	1.01433181529	0.995152672479
2	1.01457981529	0.995008005812
2	1.01458981529	0.995007991923
2	1.01544581529	0.994603769701
2	1.01545581529	0.994603755812
2	1.01570381529	0.994459089145
2	1.01581381529	0.994458936368
2	1.01608581529	0.994330491923
2	1.01609581529	0.994330478034
2	1.01634381529	0.994185811368
2	1.01635381529	0.994185797479
2	1.01720981529	0.993781575257
2	1.01721981529	0.993781561368
2	1.01746781529	0.993636894701
2	1.01753781529	0.993636797479
2	1.01780981529	0.993508353034
2	1.01781981529	0.993508339145
2	1.01806781529	0.993363672479
2	1.01807781529	0.99336365859
2	1.01893381529	0.992959436368
2	1.01894381529	0.992959422479
2	1.01919181529	0.992814755812
2	1.01932181529	0.992814575257
2	1.01959381529	0.992686130812
2	1.01960381529	0.992686116923
2	1.01985181529	0.992541450257
2	1.01986181529	0.992541436368
2	1.02071781529	0.992137214145
2	1.02072781529	0.992137200257
2	1.02097581529	0.99199253359
2	1.02104581529	0.991992436368
2	1.02131781529	0.991863991923
2	1.02132781529	0.991863978034
2	1.02157581529	0.991719311368
2	1.02158581529	0.991719297479
2	1.02244181529	0.991315075257
2	1.02245181529	0.991315061368
2	1.02269981529	0.991170394701
2	1.02294981529	0.991170047479
2	1.02322181529	0.991041603034
2	1.02323181529	0.991041589145
2	1.02347981529	0.990896922479
2	1.02348981529	0.99089690859
2	1.02434581529	0.990492686368
2	1.02435581529	0.990492672479
2	1.02460381529	0.990348005812
2	1.02519381529	0.990347186368
2	1.02604981529	0.989847853034
2	1.02607981529	0.989847811368
2	1.02635181529	0.989719366923
2	1.02636181529	0.989719353034
2	1.02660981529	0.989574686368
2	1.02661981529	0.989574672479
2	1.02747581529	0.989170450257
2	1.02748581529	0.989170436368
2	1.02773381529	0.989025769701
2	1.02786381529	0.989025589145
2	1.02813581529	0.988897144701
2	1.02814581529	0.988897130812
2	1.02839381529	0.988752464145
2	1.02840381529	0.988752450257
2	1.02925981529	0.988348228034
2	1.02926981529	0.988348214145
2	1.02951781529	0.988203547479
2	1.02992781529	0.988202978034
2	1.03019981529	0.98807453359
2	1.03020981529	0.988074519701
2	1.03045781529	0.987929853034
2	1.03046781529	0.987929839145
2	1.03132381529	0.987525616923
2	1.03133381529	0.987525603034
2	1.03158181529	0.987380936368
2	1.03207181529	0.987380255812
2	1.03234381529	0.987251811368
2	1.03235381529	0.987251797479
2	1.03260181529	0.987107130812
2	1.03261181529	0.987107116923
2	1.03346781529	0.986702894701
2	1.03347781529	0.986702880812
2	1.03372581529	0.986558214145
2	1.03403581529	0.98655778359
2	1.03430781529	0.986429339145
2	1.03431781529	0.986429325257
2	1.03456581529	0.98628465859
2	1.03457581529	0.986284644701
2	1.03543181529	0.985880422479
2	1.03544181529	0.98588040859
2	1.03568981529	0.985735741923
2	1.03633981529	0.985734839145
2	1.03719581529	0.985235505812
2	1.03786581529	0.985234575257
2	1.03872181529	0.984735241923
2	1.03901181529	0.984734839145
2	1.03986781529	0.984235505812
2	1.04039781529	0.984234769701
2	1.04125381529	0.983735436368
2	1.04132381529	0.983735339145
2	1.04217981529	0.983236005812
2	1.04240981529	0.983235686368
2	1.04326581529	0.982736353034
2	1.04343581529	0.982736116923
2	1.04370781529	0.982607672479
2	1.04371781529	0.98260765859
2	1.04396581529	0.982462991923
2	1.04397581529	0.982462978034
2	1.04483181529	0.982058755812
2	1.04484181529	0.982058741923
2	1.04508981529	0.981914075257
2	1.04531981529	0.981913755812
2	1.04617581529	0.981414422479
2	1.04636581529	0.98141415859
2	1.04722181529	0.980914825257
2	1.04725181529	0.98091478359
2	1.04752381529	0.980786339145
2	1.04753381529	0.980786325257
2	1.04778181529	0.98064165859
2	1.04779181529	0.980641644701
2	1.04864781529	0.980237422479
2	1.04865781529	0.98023740859
2	1.04890581529	0.980092741923
2	1.04919581529	0.980092339145
2	1.04946781529	0.979963894701
2	1.04947781529	0.979963880812
2	1.04972581529	0.979819214145
2	1.04973581529	0.979819200257
2	1.05059181529	0.979414978034
2	1.05060181529	0.979414964145
2	1.05084981529	0.979270297479
2	1.05099981529	0.979270089145
2	1.05127181529	0.979141644701
2	1.05128181529	0.979141630812
2	1.05152981529	0.978996964145
2	1.05153981529	0.978996950257
2	1.05239581529	0.978592728034
2	1.05240581529	0.978592714145
2	1.05265381529	0.978448047479
2	1.05286381529	0.978447755812
2	1.05313581529	0.978319311368
2	1.05314581529	0.978319297479
2	1.05339381529	0.978174630812
2	1.05340381529	0.978174616923
2	1.05425981529	0.977770394701
2	1.05426981529	0.977770380812
2	1.05451781529	0.977625714145
2	1.05466781529	0.977625505812
2	1.05493981529	0.977497061368
2	1.05494981529	0.977497047479
2	1.05519781529	0.977352380812
2	1.05520781529	0.977352366923
2	1.05606381529	0.976948144701
2	1.05607381529	0.976948130812
2	1.05632181529	0.976803464145
2	1.05639181529	0.976803366923
2	1.05666381529	0.976674922479
2	1.05667381529	0.97667490859
2	1.05692181529	0.976530241923
2	1.05693181529	0.976530228034
2	1.05778781529	0.976126005812
2	1.05779781529	0.976125991923
2	1.05804581529	0.975981325257
2	1.05821581529	0.975981089145
2	1.05848781529	0.975852644701
2	1.05849781529	0.975852630812
2	1.05874581529	0.975707964145
2	1.05875581529	0.975707950257
2	1.05961181529	0.975303728034
2	1.05962181529	0.975303714145
2	1.05986981529	0.975159047479
2	1.05999981529	0.975158866923
2	1.06027181529	0.975030422479
2	1.06028181529	0.97503040859
2	1.06052981529	0.974885741923
2	1.06053981529	0.974885728034
2	1.06139581529	0.974481505812
2	1.06140581529	0.974481491923
2	1.06165381529	0.974336825257
2	1.06184381529	0.974336561368
2	1.06269981529	0.973837228034
2	1.06290981529	0.973836936368
2	1.06318181529	0.973708491923
2	1.06319181529	0.973708478034
2	1.06343981529	0.973563811368
2	1.06344981529	0.973563797479
2	1.06430581529	0.973159575257
2	1.06431581529	0.973159561368
2	1.06456381529	0.973014894701
2	1.06477381529	0.973014603034
2	1.06504581529	0.97288615859
2	1.06505581529	0.972886144701
2	1.06530381529	0.972741478034
2	1.06531381529	0.972741464145
2	1.06616981529	0.972337241923
2	1.06617981529	0.972337228034
2	1.06642781529	0.972192561368
2	1.06659781529	0.972192325257
2	1.06745381529	0.971692991923
2	1.06788381529	0.971692394701
2	1.06815581529	0.971563950257
2	1.06816581529	0.971563936368
2	1.06841381529	0.971419269701
2	1.06842381529	0.971419255812
2	1.06927981529	0.97101503359
2	1.06928981529	0.971015019701
2	1.06953781529	0.970870353034
2	1.06966781529	0.970870172479
2	1.06993981529	0.970741728034
2	1.06994981529	0.970741714145
2	1.07019781529	0.970597047479
2	1.07020781529	0.97059703359
2	1.07106381529	0.970192811368
2	1.07107381529	0.970192797479
2	1.07132181529	0.970048130812
2	1.07139181529	0.97004803359
2	1.07166381529	0.969919589145
2	1.07167381529	0.969919575257
2	1.07192181529	0.96977490859
2	1.07193181529	0.969774894701
2	1.07278781529	0.969370672479
2	1.07279781529	0.96937065859
2	1.07304581529	0.969225991923
2	1.07309581529	0.969225922479
2	1.07336781529	0.969097478034
2	1.07337781529	0.969097464145
2	1.07362581529	0.968952797479
2	1.07363581529	0.96895278359
2	1.07449181529	0.968548561368
2	1.07450181529	0.968548547479
2	1.07474981529	0.968403880812
2	1.07513981529	0.968403339145
2	1.07599581529	0.967904005812
2	1.07602581529	0.967903964145
2	1.07629781529	0.967775519701
2	1.07630781529	0.967775505812
2	1.07655581529	0.967630839145
2	1.07656581529	0.967630825257
2	1.07742181529	0.967226603034
2	1.07743181529	0.967226589145
2	1.07767981529	0.967081922479
2	1.07780981529	0.967081741923
2	1.07808181529	0.966953297479
2	1.07809181529	0.96695328359
2	1.07833981529	0.966808616923
2	1.07834981529	0.966808603034
2	1.07920581529	0.966404380812
2	1.07921581529	0.966404366923
2	1.07946381529	0.966259700257
2	1.07953381529	0.966259603034
2	1.07980581529	0.96613115859
2	1.07981581529	0.966131144701
2	1.08006381529	0.965986478034
2	1.08007381529	0.965986464145
2	1.08092981529	0.965582241923
2	1.08093981529	0.965582228034
2	1.08118781529	0.965437561368
2	1.08123781529	0.965437491923
2	1.08150981529	0.965309047479
2	1.08151981529	0.96530903359
2	1.08176781529	0.965164366923
2	1.08177781529	0.965164353034
2	1.08263381529	0.964760130812
2	1.08264381529	0.964760116923
2	1.08289181529	0.964615450257
2	1.08298181529	0.964615325257
2	1.08383781529	0.964115991923
2	1.08398781529	0.96411578359
2	1.08484381529	0.963616450257
2	1.08491381529	0.963616353034
2	1.08518581529	0.96348790859
2	1.08519581529	0.963487894701
2	1.08544381529	0.963343228034
2	1.08545381529	0.963343214145
2	1.08630981529	0.962938991923
2	1.08631981529	0.962938978034
2	1.08656781529	0.962794311368
2	1.08677781529	0.962794019701
2	1.08704981529	0.962665575257
2	1.08705981529	0.962665561368
2	1.08730781529	0.962520894701
2	1.08731781529	0.962520880812
2	1.08817381529	0.96211665859
2	1.08818381529	0.962116644701
2	1.08843181529	0.961971978034
2	1.08876181529	0.961971519701
2	1.08961781529	0.961472186368
2	1.08992781529	0.961471755812
2	1.09019981529	0.961343311368
2	1.09020981529	0.961343297479
2	1.09045781529	0.961198630812
2	1.09046781529	0.961198616923
2	1.09132381529	0.960794394701
2	1.09133381529	0.960794380812
2	1.09158181529	0.960649714145
2	1.09187181529	0.960649311368
2	1.09214381529	0.960520866923
2	1.09215381529	0.960520853034
2	1.09240181529	0.960376186368
2	1.09241181529	0.960376172479
2	1.09326781529	0.959971950257
2	1.09327781529	0.959971936368
2	1.09352581529	0.959827269701
2	1.09359581529	0.959827172479
2	1.09386781529	0.959698728034
2	1.09387781529	0.959698714145
2	1.09412581529	0.959554047479
2	1.09413581529	0.95955403359
2	1.09499181529	0.959149811368
2	1.09500181529	0.959149797479
2	1.09524981529	0.959005130812
2	1.09553981529	0.959004728034
2	1.09581181529	0.95887628359
2	1.09582181529	0.958876269701
2	1.09606981529	0.958731603034
2	1.09607981529	0.958731589145
2	1.09693581529	0.958327366923
2	1.09694581529	0.958327353034
2	1.09719381529	0.958182686368
2	1.09728381529	0.958182561368
2	1.09813981529	0.957683228034
2	1.09848981529	0.957682741923
2	1.09934581529	0.95718340859
2	1.09941581529	0.957183311368
2	1.09968781529	0.957054866923
2	1.09969781529	0.957054853034
2	1.09994581529	0.956910186368
2	1.09995581529	0.956910172479
2	1.10081181529	0.956505950257
2	1.10082181529	0.956505936368
2	1.10106981529	0.956361269701
2	1.10109981529	0.956361228034
2	1.10137181529	0.95623278359
2	1.10138181529	0.956232769701
2	1.10162981529	0.956088103034
2	1.10163981529	0.956088089145
2	1.10249581529	0.955683866923
2	1.10250581529	0.955683853034
2	1.10275381529	0.955539186368
2	1.10286381529	0.95553903359
2	1.10313581529	0.955410589145
2	1.10314581529	0.955410575257
2	1.10339381529	0.95526590859
2	1.10340381529	0.955265894701
2	1.10425981529	0.954861672479
2	1.10426981529	0.95486165859
2	1.10451781529	0.954716991923
2	1.10476781529	0.954716644701
2	1.10503981529	0.954588200257
2	1.10504981529	0.954588186368
2	1.10529781529	0.954443519701
2	1.10530781529	0.954443505812
2	1.10616381529	0.95403928359
2	1.10617381529	0.954039269701
2	1.10642181529	0.953894603034
2	1.10665181529	0.95389428359
2	1.10692381529	0.953765839145
2	1.10693381529	0.953765825257
2	1.10718181529	0.95362115859
2	1.10719181529	0.953621144701
2	1.10804781529	0.953216922479
2	1.10805781529	0.95321690859
2	1.10830581529	0.953072241923
2	1.10843581529	0.953072061368
2	1.10870781529	0.952943616923
2	1.10871781529	0.952943603034
2	1.10896581529	0.952798936368
2	1.10897581529	0.952798922479
2	1.10983181529	0.952394700257
2	1.10984181529	0.952394686368
2	1.11008981529	0.952250019701
2	1.11027981529	0.952249755812
2	1.11113581529	0.951750422479
2	1.11156581529	0.951749825257
2	1.11183781529	0.951621380812
2	1.11184781529	0.951621366923
2	1.11209581529	0.951476700257
2	1.11210581529	0.951476686368
2	1.11296181529	0.951072464145
2	1.11297181529	0.951072450257
2	1.11321981529	0.95092778359
2	1.11388981529	0.950926853034
2	1.11474581529	0.950427519701
2	1.11515581529	0.950426950257
2	1.11601181529	0.949927616923
2	1.11618181529	0.949927380812
2	1.11703781529	0.949428047479
2	1.11734781529	0.949427616923
2	1.11820381529	0.94892828359
2	1.11831381529	0.948928130812
2	1.11858581529	0.948799686368
2	1.11859581529	0.948799672479
2	1.11884381529	0.948655005812
2	1.11885381529	0.948654991923
2	1.11970981529	0.948250769701
2	1.11971981529	0.948250755812
2	1.11996781529	0.948106089145
2	1.12007781529	0.948105936368
2	1.12093381529	0.947606603034
2	1.12114381529	0.947606311368
2	1.12141581529	0.947477866923
2	1.12142581529	0.947477853034
2	1.12167381529	0.947333186368
2	1.12168381529	0.947333172479
2	1.12253981529	0.946928950257
2	1.12254981529	0.946928936368
2	1.12279781529	0.946784269701
2	1.12300781529	0.946783978034
2	1.12327981529	0.94665553359
2	1.12328981529	0.946655519701
2	1.12353781529	0.946510853034
2	1.12354781529	0.946510839145
2	1.12440381529	0.946106616923
2	1.12441381529	0.946106603034
2	1.12466181529	0.945961936368
2	1.12481181529	0.945961728034
2	1.12508381529	0.94583328359
2	1.12509381529	0.945833269701
2	1.12534181529	0.945688603034
2	1.12535181529	0.945688589145
2	1.12620781529	0.945284366923
2	1.12621781529	0.945284353034
2	1.12646581529	0.945139686368
2	1.12663581529	0.945139450257
2	1.12690781529	0.945011005812
2	1.12691781529	0.945010991923
2	1.12716581529	0.944866325257
2	1.12717581529	0.944866311368
2	1.12803181529	0.944462089145
2	1.12804181529	0.944462075257
2	1.12828981529	0.94431740859
2	1.12841981529	0.944317228034
2	1.12869181529	0.94418878359
2	1.12870181529	0.944188769701
2	1.12894981529	0.944044103034
2	1.12895981529	0.944044089145
2	1.12981581529	0.943639866923
2	1.12982581529	0.943639853034
2	1.13007381529	0.943495186368
2	1.13028381529	0.943494894701
2	1.13055581529	0.943366450257
2	1.13056581529	0.943366436368
2	1.13081381529	0.943221769701
2	1.13082381529	0.943221755812
2	1.13167981529	0.94281753359
2	1.13168981529	0.942817519701
2	1.13193781529	0.942672853034
2	1.13220781529	0.942672478034
2	1.13247981529	0.94254403359
2	1.13248981529	0.942544019701
2	1.13273781529	0.942399353034
2	1.13274781529	0.942399339145
2	1.13360381529	0.941995116923
2	1.13361381529	0.941995103034
2	1.13386181529	0.941850436368
2	1.13399181529	0.941850255812
2	1.13426381529	0.941721811368
2	1.13427381529	0.941721797479
2	1.13452181529	0.941577130812
2	1.13453181529	0.941577116923
2	1.13538781529	0.941172894701
2	1.13539781529	0.941172880812
2	1.13564581529	0.941028214145
2	1.13571581529	0.941028116923
2	1.13598781529	0.940899672479
2	1.13599781529	0.94089965859
2	1.13624581529	0.940754991923
2	1.13625581529	0.940754978034
2	1.13711181529	0.940350755812
2	1.13712181529	0.940350741923
2	1.13736981529	0.940206075257
2	1.13741981529	0.940206005812
2	1.13827581529	0.939706672479
2	1.13834581529	0.939706575257
2	1.13861781529	0.939578130812
2	1.13862781529	0.939578116923
2	1.13887581529	0.939433450257
2	1.13888581529	0.939433436368
2	1.13974181529	0.939029214145
2	1.13975181529	0.939029200257
2	1.13999981529	0.93888453359
2	1.14046981529	0.938883880812
2	1.14132581529	0.938384547479
2	1.1414983631	0.938384307829
2	1.1417703631	0.938255863385
2	1.1417803631	0.938255849496
2	1.1420283631	0.938111182829
2	1.1420383631	0.93811116894
2	1.1428943631	0.937706946718
2	1.1429043631	0.937706932829
2	1.1431523631	0.937562266162
2	1.1432823631	0.937562085607
2	1.1435543631	0.937433641162
2	1.1435643631	0.937433627273
2	1.1438123631	0.937288960607
2	1.1438223631	0.937288946718
2	1.1446783631	0.936884724496
2	1.1446883631	0.936884710607
2	1.1449363631	0.93674004394
2	1.1452863631	0.936739557829
2	1.1461423631	0.936240224496
2	1.1465323631	0.936239682829
2	1.1468043631	0.936111238385
2	1.1468143631	0.936111224496
2	1.1470623631	0.935966557829
2	1.1470723631	0.93596654394
2	1.1479283631	0.935562321718
2	1.1479383631	0.935562307829
2	1.1481863631	0.935417641162
2	1.1488363631	0.935416738385
2	1.1496923631	0.934917405051
2	1.1498623631	0.93491716894
2	1.1501343631	0.934788724496
2	1.1501443631	0.934788710607
2	1.1503923631	0.93464404394
2	1.1504023631	0.934644030051
2	1.1512583631	0.934239807829
2	1.1512683631	0.93423979394
2	1.1515163631	0.934095127273
2	1.1516263631	0.934094974496
2	1.1518983631	0.933966530051
2	1.1519083631	0.933966516162
2	1.1521563631	0.933821849496
2	1.1521663631	0.933821835607
2	1.1530223631	0.933417613385
2	1.1530323631	0.933417599496
2	1.1532803631	0.933272932829
2	1.1538503631	0.933272141162
2	1.1541223631	0.933143696718
2	1.1541323631	0.933143682829
2	1.1543803631	0.932999016162
2	1.1543903631	0.932999002273
2	1.1552463631	0.932594780051
2	1.1552563631	0.932594766162
2	1.1555043631	0.932450099496
2	1.1555543631	0.932450030051
2	1.1564103631	0.931950696718
2	1.1567203631	0.931950266162
2	1.1569923631	0.931821821718
2	1.1570023631	0.931821807829
2	1.1572503631	0.931677141162
2	1.1572603631	0.931677127273
2	1.1581163631	0.931272905051
2	1.1581263631	0.931272891162
2	1.1583743631	0.931128224496
2	1.1587043631	0.931127766162
2	1.1595603631	0.930628432829
2	1.1597103631	0.930628224496
2	1.1599823631	0.930499780051
2	1.1599923631	0.930499766162
2	1.1602403631	0.930355099496
2	1.1602503631	0.930355085607
2	1.1611063631	0.929950863385
2	1.1611163631	0.929950849496
2	1.1613643631	0.929806182829
2	1.1616143631	0.929805835607
2	1.1624703631	0.929306502273
2	1.1625403631	0.929306405051
2	1.1628123631	0.929177960607
2	1.1628223631	0.929177946718
2	1.1630703631	0.929033280051
2	1.1630803631	0.929033266162
2	1.1639363631	0.92862904394
2	1.1639463631	0.928629030051
2	1.1641943631	0.928484363385
2	1.1644643631	0.928483988385
2	1.1647363631	0.92835554394
2	1.1647463631	0.928355530051
2	1.1649943631	0.928210863385
2	1.1650043631	0.928210849496
2	1.1658603631	0.927806627273
2	1.1658703631	0.927806613385
2	1.1661183631	0.927661946718
2	1.1662283631	0.92766179394
2	1.1665003631	0.927533349496
2	1.1665103631	0.927533335607
2	1.1667583631	0.92738866894
2	1.1667683631	0.927388655051
2	1.1676243631	0.926984432829
2	1.1676343631	0.92698441894
2	1.1678823631	0.926839752273
2	1.1679323631	0.926839682829
2	1.1687883631	0.926340349496
2	1.1688983631	0.926340196718
2	1.1697543631	0.925840863385
2	1.1698443631	0.925840738385
2	1.1701163631	0.92571229394
2	1.1701263631	0.925712280051
2	1.1703743631	0.925567613385
2	1.1703843631	0.925567599496
2	1.1712403631	0.925163377273
2	1.1712503631	0.925163363385
2	1.1714983631	0.925018696718
2	1.1718283631	0.925018238385
2	1.1721003631	0.92488979394
2	1.1721103631	0.924889780051
2	1.1723583631	0.924745113385
2	1.1723683631	0.924745099496
2	1.1732243631	0.924340877273
2	1.1732343631	0.924340863385
2	1.1734823631	0.924196196718
2	1.1736523631	0.924195960607
2	1.1739243631	0.924067516162
2	1.1739343631	0.924067502273
2	1.1741823631	0.923922835607
2	1.1741923631	0.923922821718
2	1.1750483631	0.923518599496
2	1.1750583631	0.923518585607
2	1.1753063631	0.92337391894
2	1.1755363631	0.923373599496
2	1.1758083631	0.923245155051
2	1.1758183631	0.923245141162
2	1.1760663631	0.923100474496
2	1.1760763631	0.923100460607
2	1.1769323631	0.922696238385
2	1.1769423631	0.922696224496
2	1.1771903631	0.922551557829
2	1.1773803631	0.92255129394
2	1.1776523631	0.922422849496
2	1.1776623631	0.922422835607
2	1.1779103631	0.92227816894
2	1.1779203631	0.922278155051
2	1.1787763631	0.921873932829
2	1.1787863631	0.92187391894
2	1.1790343631	0.921729252273
2	1.1791643631	0.921729071718
2	1.1800203631	0.921229738385
2	1.1802903631	0.921229363385
2	1.1811463631	0.920730030051
2	1.1813963631	0.920729682829
2	1.1822523631	0.920230349496
2	1.18277187068	0.920229627957
2	1.18304387068	0.920101183513
2	1.18305387068	0.920101169624
2	1.18330187068	0.919956502957
2	1.18331187068	0.919956489068
2	1.18416787068	0.919552266846
2	1.18417787068	0.919552252957
2	1.18442587068	0.919407586291
2	1.18459587068	0.91940735018
2	1.18486787068	0.919278905735
2	1.18487787068	0.919278891846
2	1.18512587068	0.91913422518
2	1.18513587068	0.919134211291
2	1.18599187068	0.918729989068
2	1.18600187068	0.91872997518
2	1.18624987068	0.918585308513
2	1.18667987068	0.918584711291
2	1.18695187068	0.918456266846
2	1.18696187068	0.918456252957
2	1.18720987068	0.918311586291
2	1.18721987068	0.918311572402
2	1.18807587068	0.91790735018
2	1.18808587068	0.917907336291
2	1.18833387068	0.917762669624
2	1.18846387068	0.917762489068
2	1.18873587068	0.917634044624
2	1.18874587068	0.917634030735
2	1.18899387068	0.917489364068
2	1.18900387068	0.91748935018
2	1.18985987068	0.917085127957
2	1.18986987068	0.917085114068
2	1.19011787068	0.916940447402
2	1.19036787068	0.91694010018
2	1.19122387068	0.916440766846
2	1.19129387068	0.916440669624
2	1.19156587068	0.91631222518
2	1.19157587068	0.916312211291
2	1.19182387068	0.916167544624
2	1.19183387068	0.916167530735
2	1.19268987068	0.915763308513
2	1.19269987068	0.915763294624
2	1.19294787068	0.915618627957
2	1.19303787068	0.915618502957
2	1.19330987068	0.915490058513
2	1.19331987068	0.915490044624
2	1.19356787068	0.915345377957
2	1.19357787068	0.915345364068
2	1.19443387068	0.914941141846
2	1.19444387068	0.914941127957
2	1.19469187068	0.914796461291
2	1.19490187068	0.914796169624
2	1.19517387068	0.91466772518
2	1.19518387068	0.914667711291
2	1.19543187068	0.914523044624
2	1.19544187068	0.914523030735
2	1.19629787068	0.914118808513
2	1.19630787068	0.914118794624
2	1.19655587068	0.913974127957
2	1.19668587068	0.913973947402
2	1.19695787068	0.913845502957
2	1.19696787068	0.913845489068
2	1.19721587068	0.913700822402
2	1.19722587068	0.913700808513
2	1.19808187068	0.913296586291
2	1.19809187068	0.913296572402
2	1.19833987068	0.913151905735
2	1.19866987068	0.913151447402
2	1.19952587068	0.912652114068
2	1.19963587068	0.912651961291
2	1.19990787068	0.912523516846
2	1.19991787068	0.912523502957
2	1.20016587068	0.912378836291
2	1.20017587068	0.912378822402
2	1.20103187068	0.91197460018
2	1.20104187068	0.911974586291
2	1.20128987068	0.911829919624
2	1.20189987068	0.911829072402
2	1.20217187068	0.911700627957
2	1.20218187068	0.911700614068
2	1.20242987068	0.911555947402
2	1.20243987068	0.911555933513
2	1.20329587068	0.911151711291
2	1.20330587068	0.911151697402
2	1.20355387068	0.911007030735
2	1.20404387068	0.91100635018
2	1.20489987068	0.910507016846
2	1.20540987068	0.910506308513
2	1.20626587068	0.91000697518
2	1.20663587068	0.910006461291
2	1.20749187068	0.909507127957
2	1.20762373614	0.909506944811
2	1.20789573614	0.909378500366
2	1.20790573614	0.909378486478
2	1.20815373614	0.909233819811
2	1.20816373614	0.909233805922
2	1.20901973614	0.9088295837
2	1.20902973614	0.908829569811
2	1.20927773614	0.908684903144
2	1.20950773614	0.9086845837
2	1.21036373614	0.908185250366
2	1.21051373614	0.908185042033
2	1.21078573614	0.908056597589
2	1.21079573614	0.9080565837
2	1.21104373614	0.907911917033
2	1.21105373614	0.907911903144
2	1.21190973614	0.907507680922
2	1.21191973614	0.907507667033
2	1.21216773614	0.907363000366
2	1.21235773614	0.907362736478
2	1.21262973614	0.907234292033
2	1.21263973614	0.907234278144
2	1.21288773614	0.907089611478
2	1.21289773614	0.907089597589
2	1.21375373614	0.906685375366
2	1.21376373614	0.906685361478
2	1.21401173614	0.906540694811
2	1.21434173614	0.906540236478
2	1.21461373614	0.906411792033
2	1.21462373614	0.906411778144
2	1.21487173614	0.906267111478
2	1.21488173614	0.906267097589
2	1.21573773614	0.905862875366
2	1.21574773614	0.905862861478
2	1.21599573614	0.905718194811
2	1.21628573614	0.905717792033
2	1.21655773614	0.905589347589
2	1.21656773614	0.9055893337
2	1.21681573614	0.905444667033
2	1.21682573614	0.905444653144
2	1.21768173614	0.905040430922
2	1.21769173614	0.905040417033
2	1.21793973614	0.904895750366
2	1.21800973614	0.904895653144
2	1.21828173614	0.9047672087
2	1.21829173614	0.904767194811
2	1.21853973614	0.904622528144
2	1.21854973614	0.904622514255
2	1.21940573614	0.904218292033
2	1.21941573614	0.904218278144
2	1.21966373614	0.904073611478
2	1.21971373614	0.904073542033
2	1.22056973614	0.9035742087
2	1.22067973614	0.903574055922
2	1.22095173614	0.903445611478
2	1.22096173614	0.903445597589
2	1.22120973614	0.903300930922
2	1.22121973614	0.903300917033
2	1.22207573614	0.902896694811
2	1.22208573614	0.902896680922
2	1.22233373614	0.902752014255
2	1.22240373614	0.902751917033
2	1.22267573614	0.902623472589
2	1.22268573614	0.9026234587
2	1.22293373614	0.902478792033
2	1.22294373614	0.902478778144
2	1.22379973614	0.902074555922
2	1.22380973614	0.902074542033
2	1.22405773614	0.901929875366
2	1.22420773614	0.901929667033
2	1.22506373614	0.9014303337
2	1.22513373614	0.901430236478
2	1.22540573614	0.901301792033
2	1.22541573614	0.901301778144
2	1.22566373614	0.901157111478
2	1.22567373614	0.901157097589
2	1.22652973614	0.900752875366
2	1.22653973614	0.900752861478
2	1.22678773614	0.900608194811
2	1.22705773614	0.900607819811
2	1.22791373614	0.900108486478
2	1.22816373614	0.900108139255
2	1.22843573614	0.899979694811
2	1.22844573614	0.899979680922
2	1.22869373614	0.899835014255
2	1.22870373614	0.899835000366
2	1.22955973614	0.899430778144
2	1.22956973614	0.899430764255
2	1.22981773614	0.899286097589
2	1.23022773614	0.899285528144
2	1.23049973614	0.8991570837
2	1.23050973614	0.899157069811
2	1.23075773614	0.899012403144
2	1.23076773614	0.899012389255
2	1.23162373614	0.898608167033
2	1.23163373614	0.898608153144
2	1.23188173614	0.898463486478
2	1.23201173614	0.898463305922
2	1.23228373614	0.898334861478
2	1.23229373614	0.898334847589
2	1.23254173614	0.898190180922
2	1.23255173614	0.898190167033
2	1.23340773614	0.897785944811
2	1.23341773614	0.897785930922
2	1.23366573614	0.897641264255
2	1.23387573614	0.897640972589
2	1.23414773614	0.897512528144
2	1.23415773614	0.897512514255
2	1.23440573614	0.897367847589
2	1.23441573614	0.8973678337
2	1.23527173614	0.896963611478
2	1.23528173614	0.896963597589
2	1.23552973614	0.896818930922
2	1.23563973614	0.896818778144
2	1.23591173614	0.8966903337
2	1.23592173614	0.896690319811
2	1.23616973614	0.896545653144
2	1.23617973614	0.896545639255
2	1.23703573614	0.896141417033
2	1.23704573614	0.896141403144
2	1.23729373614	0.895996736478
2	1.23754373614	0.895996389255
2	1.23839973614	0.895497055922
2	1.23870973614	0.895496625366
2	1.23898173614	0.895368180922
2	1.23899173614	0.895368167033
2	1.23923973614	0.895223500366
2	1.23924973614	0.895223486478
2	1.24010573614	0.894819264255
2	1.24011573614	0.894819250366
2	1.24036373614	0.8946745837
2	1.24069373614	0.894674125366
2	1.24154973614	0.894174792033
2	1.24159973614	0.894174722589
2	1.24245573614	0.893675389255
2	1.24266573614	0.893675097589
2	1.24352173614	0.893175764255
2	1.24379173614	0.893175389255
2	1.24464773614	0.892676055922
2	1.24503773614	0.892675514255
2	1.24530973614	0.892547069811
2	1.24531973614	0.892547055922
2	1.24556773614	0.892402389255
2	1.24557773614	0.892402375366
2	1.24643373614	0.891998153144
2	1.24644373614	0.891998139255
2	1.24669173614	0.891853472589
2	1.24686173614	0.891853236478
2	1.24713373614	0.891724792033
2	1.24714373614	0.891724778144
2	1.24739173614	0.891580111478
2	1.24740173614	0.891580097589
2	1.24825773614	0.891175875366
2	1.24826773614	0.891175861478
2	1.24851573614	0.891031194811
2	1.24860573614	0.891031069811
2	1.24887773614	0.890902625366
2	1.24888773614	0.890902611478
2	1.24913573614	0.890757944811
2	1.24914573614	0.890757930922
2	1.25000173614	0.8903537087
2	1.25001173614	0.890353694811
2	1.25025973614	0.890209028144
2	1.25050973614	0.890208680922
2	1.25078173614	0.890080236478
2	1.25079173614	0.890080222589
2	1.25103973614	0.889935555922
2	1.25104973614	0.889935542033
2	1.25190573614	0.889531319811
2	1.25191573614	0.889531305922
2	1.25216373614	0.889386639255
2	1.25225373614	0.889386514255
2	1.25310973614	0.888887180922
2	1.25363973614	0.888886444811
2	1.25449573614	0.888387111478
2	1.25494573614	0.888386486478
2	1.25521773614	0.888258042033
2	1.25522773614	0.888258028144
2	1.25547573614	0.888113361478
2	1.25548573614	0.888113347589
2	1.25634173614	0.887709125366
2	1.25635173614	0.887709111478
2	1.25659973614	0.887564444811
2	1.25694973614	0.8875639587
2	1.25780573614	0.887064625366
2	1.25805573614	0.887064278144
2	1.25891173614	0.886564944811
2	1.25894173614	0.886564903144
2	1.25921373614	0.8864364587
2	1.25922373614	0.886436444811
2	1.25947173614	0.886291778144
2	1.25948173614	0.886291764255
2	1.26033773614	0.885887542033
2	1.26034773614	0.885887528144
2	1.26059573614	0.885742861478
2	1.26108573614	0.885742180922
2	1.26135773614	0.885613736478
2	1.26136773614	0.885613722589
2	1.26161573614	0.885469055922
2	1.26162573614	0.885469042033
2	1.26248173614	0.885064819811
2	1.26249173614	0.885064805922
2	1.26273973614	0.884920139255
2	1.26300973614	0.884919764255
2	1.26386573614	0.884420430922
2	1.26433573614	0.884419778144
2	1.26519173614	0.883920444811
2	1.26528173614	0.883920319811
2	1.26613773614	0.883420986478
2	1.26640773614	0.883420611478
2	1.26726373614	0.882921278144
2	1.26773373614	0.882920625366
2	1.26858973614	0.882421292033
2	1.26873973614	0.8824210837
2	1.26901173614	0.882292639255
2	1.26902173614	0.882292625366
2	1.26926973614	0.8821479587
2	1.26927973614	0.882147944811
2	1.27013573614	0.881743722589
2	1.27014573614	0.8817437087
2	1.27039373614	0.881599042033