version 2
run Eight-0-20090924-13:56:49-18898
attr configname Eight
attr datetime 20090924-13:56:49
attr experiment Eight
attr inifile omnetpp.ini
attr iterationvars ""
attr iterationvars2 $repetition=0
attr measurement ""
attr network sim
attr processid 18898
attr repetition 0
attr replication #0
attr resultdir results
attr runnumber 0
attr seedset 0

vector 2  sim.host[0].batteryStats  capacity(relative)  ETV
vector 7  sim.host[1].batteryStats  capacity(relative)  ETV
vector 12  sim.host[2].batteryStats  capacity(relative)  ETV
vector 17  sim.host[3].batteryStats  capacity(relative)  ETV
vector 22  sim.host[4].batteryStats  capacity(relative)  ETV
vector 27  sim.host[5].batteryStats  capacity(relative)  ETV
vector 32  sim.host[6].batteryStats  capacity(relative)  ETV
vector 37  sim.host[7].batteryStats  capacity(relative)  ETV
vector 42  sim.host[8].batteryStats  capacity(relative)  ETV
vector 47  sim.host[9].batteryStats  capacity(relative)  ETV
vector 52  sim.host[10].batteryStats  capacity(relative)  ETV
vector 57  sim.host[11].batteryStats  capacity(relative)  ETV
vector 62  sim.host[12].batteryStats  capacity(relative)  ETV
vector 67  sim.host[13].batteryStats  capacity(relative)  ETV
vector 72  sim.host[14].batteryStats  capacity(relative)  ETV
vector 77  sim.host[15].batteryStats  capacity(relative)  ETV
vector 82  sim.host[16].batteryStats  capacity(relative)  ETV
vector 87  sim.host[17].batteryStats  capacity(relative)  ETV
vector 92  sim.host[18].batteryStats  capacity(relative)  ETV
vector 97  sim.host[19].batteryStats  capacity(relative)  ETV
2	0	0	0.666666666667
2	61	0.25	0.666666666667
2	81	0.5	0.666666666667
2	16509	0.75	0.666488615405
2	16549	1	0.6664
2	16569	1.25	0.6664
2	16589	1.5	0.6664
2	16609	1.75	0.6664
2	17935	2	0.666133333333
2	17955	2.25	0.666133333333
2	28748	2.5	0.666019832152
2	38257	2.75	0.665939690869
2	49730	3	0.665866666667
2	55169	3.25	0.665821426733
2	64123	3.5	0.665761226134
2	67881	3.75	0.665718378737
2	81357	4	0.6656
2	81377	4.25	0.6656
2	90177	4.5	0.665466734575
2	93147	4.75	0.665459675908
2	98452	5	0.665333333333
2	113855	5.25	0.66528440228
2	113875	5.5	0.66528440228
7	0	0	0.666666666667
7	62	0.25	0.666666666667
7	82	0.5	0.666666666667
7	16510	0.75	0.666488615405
7	16550	1	0.6664
7	16570	1.25	0.6664
7	16590	1.5	0.6664
7	16610	1.75	0.6664
7	17936	2	0.666133333333
7	17956	2.25	0.666133333333
7	28749	2.5	0.666019832152
7	38258	2.75	0.665939690869
7	49731	3	0.665866666667
7	55170	3.25	0.665821426733
7	64124	3.5	0.665821426733
7	67882	3.75	0.665718447537
7	81358	4	0.6656
7	81378	4.25	0.6656
7	90178	4.5	0.665466734575
7	93148	4.75	0.665466362308
7	98453	5	0.665333333333
7	113856	5.25	0.66528447108
7	113876	5.5	0.66528447108
12	0	0	0.666666666667
12	63	0.25	0.666666666667
12	83	0.5	0.666666666667
12	16511	0.75	0.666488615405
12	16551	1	0.6664
12	16571	1.25	0.6664
12	16591	1.5	0.6664
12	16611	1.75	0.6664
12	17937	2	0.666133333333
12	17957	2.25	0.666133333333
12	28750	2.5	0.666019832152
12	38259	2.75	0.665939690869
12	49732	3	0.665866666667
12	55171	3.25	0.665821426733
12	64125	3.5	0.665821426733
12	67883	3.75	0.665718447537
12	81359	4	0.6656
12	81379	4.25	0.6656
12	90179	4.5	0.665466734575
12	93149	4.75	0.665466362308
12	98454	5	0.665333333333
12	113857	5.25	0.66528447108
12	113877	5.5	0.66528447108
17	0	0	0.666666666667
17	64	0.25	0.666666666667
17	84	0.5	0.666666666667
17	16512	0.75	0.666488615405
17	16552	1	0.6664
17	16572	1.25	0.6664
17	16592	1.5	0.6664
17	16612	1.75	0.6664
17	17938	2	0.666133333333
17	17958	2.25	0.666133333333
17	28751	2.5	0.666022155886
17	38260	2.75	0.665938591669
17	49733	3	0.665866666667
17	55172	3.25	0.665866666667
17	64126	3.5	0.665761157334
17	67884	3.75	0.665718901937
17	81360	4	0.6656
17	81380	4.25	0.6656
17	90180	4.5	0.665466734575
17	93150	4.75	0.665459675908
17	98455	5	0.665333333333
17	113858	5.25	0.66528440228
17	113878	5.5	0.66528440228
22	0	0	0.666666666667
22	65	0.25	0.666666666667
22	85	0.5	0.666666666667
22	16513	0.75	0.666488615405
22	16553	1	0.6664
22	16573	1.25	0.6664
22	16593	1.5	0.6664
22	16613	1.75	0.6664
22	17939	2	0.666133333333
22	17959	2.25	0.666133333333
22	28752	2.5	0.666022155886
22	38261	2.75	0.665938591669
22	49734	3	0.665866666667
22	55173	3.25	0.665866666667
22	64127	3.5	0.665761157334
22	67885	3.75	0.665718901937
22	81361	4	0.6656
22	81381	4.25	0.6656
22	90181	4.5	0.665466734575
22	93151	4.75	0.665459675908
22	98456	5	0.665333333333
22	113859	5.25	0.66528440228
22	113879	5.5	0.66528440228
27	0	0	0.666666666667
27	66	0.25	0.666666666667
27	86	0.5	0.666666666667
27	16514	0.75	0.666488615405
27	16554	1	0.6664
27	16574	1.25	0.6664
27	16594	1.5	0.6664
27	16614	1.75	0.6664
27	17940	2	0.666133333333
27	17960	2.25	0.666133333333
27	28753	2.5	0.666022155886
27	38262	2.75	0.665938591669
27	49735	3	0.665866666667
27	55174	3.25	0.665866666667
27	64128	3.5	0.665761157334
27	67886	3.75	0.665718901937
27	81362	4	0.6656
27	81382	4.25	0.6656
27	90182	4.5	0.665466734575
27	93152	4.75	0.665459675908
27	98457	5	0.665333333333
27	113860	5.25	0.66528440228
27	113880	5.5	0.66528440228
32	0	0	0.666666666667
32	67	0.25	0.666666666667
32	87	0.5	0.666666666667
32	16515	0.75	0.666488615405
32	16555	1	0.6664
32	16575	1.25	0.6664
32	16595	1.5	0.6664
32	16615	1.75	0.6664
32	17941	2	0.666133333333
32	17961	2.25	0.666133333333
32	28754	2.5	0.666019832152
32	38263	2.75	0.665939690869
32	49736	3	0.665866666667
32	55175	3.25	0.665821426733
32	64129	3.5	0.665821426733
32	67887	3.75	0.665821426733
32	81363	4	0.6656
32	81383	4.25	0.6656
32	90183	4.5	0.665466734575
32	93153	4.75	0.665466362308
32	98458	5	0.665333333333
32	113861	5.25	0.66528447108
32	113881	5.5	0.66528447108
37	0	0	0.666666666667
37	68	0.25	0.666666666667
37	88	0.5	0.666666666667
37	16516	0.75	0.666488615405
37	16556	1	0.6664
37	16576	1.25	0.6664
37	16596	1.5	0.6664
37	16616	1.75	0.6664
37	17942	2	0.666133333333
37	17962	2.25	0.666133333333
37	28755	2.5	0.666019832152
37	38264	2.75	0.665939690869
37	49737	3	0.665866666667
37	55176	3.25	0.665821426733
37	64130	3.5	0.665761226134
37	67888	3.75	0.665718378737
37	81364	4	0.6656
37	81384	4.25	0.6656
37	90184	4.5	0.665466734575
37	93154	4.75	0.665459675908
37	98459	5	0.665333333333
37	113862	5.25	0.66528440228
37	113882	5.5	0.66528440228
42	0	0	0.666666666667
42	69	0.25	0.666666666667
42	89	0.5	0.666666666667
42	16517	0.75	0.666488615405
42	16557	1	0.6664
42	16577	1.25	0.6664
42	16597	1.5	0.6664
42	16617	1.75	0.6664
42	17943	2	0.666133333333
42	17963	2.25	0.666133333333
42	28756	2.5	0.666019832152
42	38265	2.75	0.665939690869
42	49738	3	0.665866666667
42	55177	3.25	0.665822580333
42	64131	3.5	0.665822580333
42	67889	3.75	0.665718378737
42	81365	4	0.6656
42	81385	4.25	0.6656
42	90185	4.5	0.665466734575
42	93155	4.75	0.665466362308
42	98460	5	0.665333333333
42	113863	5.25	0.66528447108
42	113883	5.5	0.66528447108
47	0	0	0.666666666667
47	70	0.25	0.666666666667
47	90	0.5	0.666666666667
47	16518	0.75	0.666488615405
47	16558	1	0.6664
47	16578	1.25	0.6664
47	16598	1.5	0.6664
47	16618	1.75	0.6664
47	17944	2	0.666133333333
47	17964	2.25	0.666133333333
47	28757	2.5	0.666019832152
47	38266	2.75	0.665938591669
47	49739	3	0.665866666667
47	55178	3.25	0.665821426733
47	64132	3.5	0.665761157334
47	67890	3.75	0.665718378737
47	81366	4	0.6656
47	81386	4.25	0.6656
47	90186	4.5	0.665466734575
47	93156	4.75	0.665459675908
47	98461	5	0.665333333333
47	113864	5.25	0.66528440228
47	113884	5.5	0.66528440228
52	0	0	0.666666666667
52	71	0.25	0.666666666667
52	91	0.5	0.666666666667
52	16519	0.75	0.666488615405
52	16559	1	0.6664
52	16579	1.25	0.6664
52	16599	1.5	0.6664
52	16619	1.75	0.6664
52	17945	2	0.666133333333
52	17965	2.25	0.666133333333
52	28758	2.5	0.666022155886
52	38267	2.75	0.665938591669
52	49740	3	0.665866666667
52	55179	3.25	0.665866666667
52	64133	3.5	0.665761157334
52	67891	3.75	0.665761157334
52	81367	4	0.6656
52	81387	4.25	0.6656
52	90187	4.5	0.665466734575
52	93157	4.75	0.665459675908
52	98462	5	0.665333333333
52	113865	5.25	0.66528440228
52	113885	5.5	0.66528440228
57	0	0	0.666666666667
57	72	0.25	0.666666666667
57	92	0.5	0.666666666667
57	16520	0.75	0.666488615405
57	16560	1	0.6664
57	16580	1.25	0.6664
57	16600	1.5	0.6664
57	16620	1.75	0.6664
57	17946	2	0.666133333333
57	17966	2.25	0.666133333333
57	28759	2.5	0.666022155886
57	38268	2.75	0.665938591669
57	49741	3	0.665866666667
57	55180	3.25	0.665866666667
57	64134	3.5	0.665761157334
57	67892	3.75	0.665718901937
57	81368	4	0.6656
57	81388	4.25	0.6656
57	90188	4.5	0.665466734575
57	93158	4.75	0.665459675908
57	98463	5	0.665333333333
57	113866	5.25	0.66528440228
57	113886	5.5	0.66528440228
62	0	0	0.666666666667
62	73	0.25	0.666666666667
62	93	0.5	0.666666666667
62	16521	0.75	0.666488615405
62	16561	1	0.6664
62	16581	1.25	0.6664
62	16601	1.5	0.6664
62	16621	1.75	0.6664
62	17947	2	0.666133333333
62	17967	2.25	0.666133333333
62	28760	2.5	0.666019832152
62	38269	2.75	0.665939690869
62	49742	3	0.665866666667
62	55181	3.25	0.665821426733
62	64135	3.5	0.665821426733
62	67893	3.75	0.665718378737
62	81369	4	0.6656
62	81389	4.25	0.6656
62	90189	4.5	0.665466734575
62	93159	4.75	0.665466362308
62	98464	5	0.665333333333
62	113867	5.25	0.66528447108
62	113887	5.5	0.66528447108
67	0	0	0.666666666667
67	74	0.25	0.666666666667
67	94	0.5	0.666666666667
67	16522	0.75	0.666488615405
67	16562	1	0.6664
67	16582	1.25	0.6664
67	16602	1.5	0.6664
67	16622	1.75	0.6664
67	17948	2	0.666133333333
67	17968	2.25	0.666133333333
67	28761	2.5	0.666022155886
67	38270	2.75	0.665938591669
67	49743	3	0.665866666667
67	55182	3.25	0.665866666667
67	64136	3.5	0.665761157334
67	67894	3.75	0.665761157334
67	81370	4	0.6656
67	81390	4.25	0.6656
67	90190	4.5	0.665466734575
67	93160	4.75	0.665459675908
67	98465	5	0.665333333333
67	113868	5.25	0.66528440228
67	113888	5.5	0.66528440228
72	0	0	0.666666666667
72	75	0.25	0.666666666667
72	95	0.5	0.666666666667
72	16523	0.75	0.666488615405
72	16563	1	0.6664
72	16583	1.25	0.6664
72	16603	1.5	0.6664
72	16623	1.75	0.6664
72	17949	2	0.666133333333
72	17969	2.25	0.666133333333
72	28762	2.5	0.666022155886
72	38271	2.75	0.665938591669
72	49744	3	0.665866666667
72	55183	3.25	0.665821426733
72	64137	3.5	0.665761157334
72	67895	3.75	0.665761157334
72	81371	4	0.6656
72	81391	4.25	0.6656
72	90191	4.5	0.665466734575
72	93161	4.75	0.665459675908
72	98466	5	0.665333333333
72	113869	5.25	0.66528440228
72	113889	5.5	0.66528440228
77	0	0	0.666666666667
77	76	0.25	0.666666666667
77	96	0.5	0.666666666667
77	16524	0.75	0.666488615405
77	16564	1	0.6664
77	16584	1.25	0.6664
77	16604	1.5	0.6664
77	16624	1.75	0.6664
77	17950	2	0.666133333333
77	17970	2.25	0.666133333333
77	28763	2.5	0.666019832152
77	38272	2.75	0.665939690869
77	49745	3	0.665866666667
77	55184	3.25	0.665821426733
77	64138	3.5	0.665821426733
77	67896	3.75	0.665718378737
77	81372	4	0.6656
77	81392	4.25	0.6656
77	90192	4.5	0.665466734575
77	93162	4.75	0.665466362308
77	98467	5	0.665333333333
77	113870	5.25	0.66528447108
77	113890	5.5	0.66528447108
82	0	0	0.666666666667
82	77	0.25	0.666666666667
82	97	0.5	0.666666666667
82	16525	0.75	0.666488615405
82	16565	1	0.6664
82	16585	1.25	0.6664
82	16605	1.5	0.6664
82	16625	1.75	0.6664
82	17951	2	0.666133333333
82	17971	2.25	0.666133333333
82	28764	2.5	0.666019832152
82	38273	2.75	0.665939690869
82	49746	3	0.665866666667
82	55185	3.25	0.665821426733
82	64139	3.5	0.665821426733
82	67897	3.75	0.665718378737
82	81373	4	0.6656
82	81393	4.25	0.6656
82	90193	4.5	0.665466734575
82	93163	4.75	0.665466362308
82	98468	5	0.665333333333
82	113871	5.25	0.66528447108
82	113891	5.5	0.66528447108
87	0	0	0.666666666667
87	78	0.25	0.666666666667
87	98	0.5	0.666666666667
87	16526	0.75	0.666488615405
87	16566	1	0.6664
87	16586	1.25	0.6664
87	16606	1.5	0.6664
87	16626	1.75	0.6664
87	17952	2	0.666133333333
87	17972	2.25	0.666133333333
87	28765	2.5	0.666019832152
87	38274	2.75	0.665938591669
87	49747	3	0.665866666667
87	55186	3.25	0.665821426733
87	64140	3.5	0.665761157334
87	67898	3.75	0.665718378737
87	81374	4	0.6656
87	81394	4.25	0.6656
87	90194	4.5	0.665466734575
87	93164	4.75	0.665459675908
87	98469	5	0.665333333333
87	113872	5.25	0.66528440228
87	113892	5.5	0.66528440228
92	0	0	0.666666666667
92	79	0.25	0.666666666667
92	99	0.5	0.666666666667
92	16527	0.75	0.666488615405
92	16567	1	0.6664
92	16587	1.25	0.6664
92	16607	1.5	0.6664
92	16627	1.75	0.6664
92	17953	2	0.666133333333
92	17973	2.25	0.666133333333
92	28766	2.5	0.666022155886
92	38275	2.75	0.665938591669
92	49748	3	0.665866666667
92	55187	3.25	0.665866666667
92	64141	3.5	0.665761157334
92	67899	3.75	0.665761157334
92	81375	4	0.6656
92	81395	4.25	0.6656
92	90195	4.5	0.665466734575
92	93165	4.75	0.665459675908
92	98470	5	0.665333333333
92	113873	5.25	0.66528440228
92	113893	5.5	0.66528440228
97	0	0	0.666666666667
97	80	0.25	0.666666666667
97	100	0.5	0.666666666667
97	16528	0.75	0.666488615405
97	16568	1	0.6664
97	16588	1.25	0.6664
97	16608	1.5	0.6664
97	16628	1.75	0.6664
97	17954	2	0.666133333333
97	17974	2.25	0.666133333333
97	28767	2.5	0.666022155886
97	38276	2.75	0.665938591669
97	49749	3	0.665866666667
97	55188	3.25	0.665866666667
97	64142	3.5	0.665761157334
97	67900	3.75	0.665761157334
97	81376	4	0.6656
97	81396	4.25	0.6656
97	90196	4.5	0.665466734575
97	93166	4.75	0.665459675908
97	98471	5	0.665333333333
97	113874	5.25	0.66528440228
97	113894	5.5	0.66528440228
