file 1118903 1253626582                                         
version 2
run Eight-0-20090826-15:55:22-17288
attr configname Eight
attr datetime 20090826-15:55:22
attr experiment Eight
attr inifile omnetpp.ini
attr iterationvars ""
attr iterationvars2 $repetition=0
attr measurement ""
attr network sim
attr processid 17288
attr repetition 0
attr replication #0
attr resultdir results
attr runnumber 0
attr seedset 0
vector 2  sim.host[0].batteryStats  capacity(relative)  ETV
2	1583 54069 0 250511 0 499.75 2000 0.5336 0.666666666667 1200.2646478803 723.28030015093
vector 7  sim.host[1].batteryStats  capacity(relative)  ETV
7	55652 54069 0 250512 0 499.75 2000 0.5336 0.666666666667 1200.264896679 723.28063096349
vector 12  sim.host[2].batteryStats  capacity(relative)  ETV
12	109721 56069 0 250513 0 499.75 2000 0.5336 0.666666666667 1200.2647319097 723.28041200048
vector 17  sim.host[3].batteryStats  capacity(relative)  ETV
17	165790 56062 0 250514 0 499.75 2000 0.5336 0.666666666667 1200.2646547806 723.28030932517
vector 22  sim.host[4].batteryStats  capacity(relative)  ETV
22	221852 56062 0 250515 0 499.75 2000 0.5336 0.666666666667 1200.2646544915 723.28030894055
vector 27  sim.host[5].batteryStats  capacity(relative)  ETV
27	277914 56062 0 250516 0 499.75 2000 0.5336 0.666666666667 1200.2646544915 723.28030894055
vector 32  sim.host[6].batteryStats  capacity(relative)  ETV
32	333976 56069 0 250517 0 499.75 2000 0.5336 0.666666666667 1200.2648286414 723.28054080191
vector 37  sim.host[7].batteryStats  capacity(relative)  ETV
37	390045 56069 0 250518 0 499.75 2000 0.5336 0.666666666667 1200.2646478803 723.28030015093
vector 42  sim.host[8].batteryStats  capacity(relative)  ETV
42	446114 56069 0 250519 0 499.75 2000 0.5336 0.666666666667 1200.2648966102 723.28063087189
vector 47  sim.host[9].batteryStats  capacity(relative)  ETV
47	502183 56070 0 250520 0 499.75 2000 0.5336 0.666666666667 1200.2646463971 723.28029817611
vector 52  sim.host[10].batteryStats  capacity(relative)  ETV
52	558253 56062 0 250521 0 499.75 2000 0.5336 0.666666666667 1200.2646994994 723.28036885494
vector 57  sim.host[11].batteryStats  capacity(relative)  ETV
57	614315 56062 0 250522 0 499.75 2000 0.5336 0.666666666667 1200.2646544915 723.28030894055
vector 62  sim.host[12].batteryStats  capacity(relative)  ETV
62	670377 56069 0 250523 0 499.75 2000 0.5336 0.666666666667 1200.2648966102 723.28063087189
vector 67  sim.host[13].batteryStats  capacity(relative)  ETV
67	726446 56062 0 250524 0 499.75 2000 0.5336 0.666666666667 1200.2646994994 723.28036885494
vector 72  sim.host[14].batteryStats  capacity(relative)  ETV
72	782508 56062 0 250525 0 499.75 2000 0.5336 0.666666666667 1200.2646994994 723.28036885494
vector 77  sim.host[15].batteryStats  capacity(relative)  ETV
77	838570 56069 0 250526 0 499.75 2000 0.5336 0.666666666667 1200.2648966102 723.28063087189
vector 82  sim.host[16].batteryStats  capacity(relative)  ETV
82	894639 56069 0 250527 0 499.75 2000 0.5336 0.666666666667 1200.2648966102 723.28063087189
vector 87  sim.host[17].batteryStats  capacity(relative)  ETV
87	950708 56070 0 250528 0 499.75 2000 0.5336 0.666666666667 1200.2646463971 723.28029817611
vector 92  sim.host[18].batteryStats  capacity(relative)  ETV
92	1006778 56062 0 250529 0 499.75 2000 0.5336 0.666666666667 1200.2646994994 723.28036885494
vector 97  sim.host[19].batteryStats  capacity(relative)  ETV
97	1062840 56063 0 250530 0 499.75 2000 0.5336 0.666666666667 1200.2646994994 723.28036885494
