version 2
run Five-0-20100408-14:36:27-4495
attr configname Five
attr datetime 20100408-14:36:27
attr experiment Five
attr inifile omnetpp.ini
attr iterationvars ""
attr iterationvars2 $repetition=0
attr measurement ""
attr network sim
attr processid 4495
attr repetition 0
attr replication #0
attr resultdir results
attr runnumber 0
attr seedset 0

vector 2  sim.host[0].batteryStats  capacity(relative)  ETV
vector 8  sim.host[1].batteryStats  capacity(relative)  ETV
vector 14  sim.host[2].batteryStats  capacity(relative)  ETV
2	0	0	1
2	0	0	1
2	10	1	0.998611111111
2	13	2	0.997222222222
2	222	2.960980196505	0.995887527505
2	228	2.961836196505	0.995483305283
2	240	2.962560196505	0.995482299727
2	248	2.963416196505	0.995078077505
2	261	2.963466196505	0.99507800806
2	267	2.963738196505	0.994949563616
2	276	2.963748196505	0.994949549727
2	281	2.963996196505	0.994832438616
2	290	2.964006196505	0.994832424727
2	295	2.964862196505	0.994428202505
2	306	2.964872196505	0.994428188616
2	313	2.965120196505	0.994311077505
2	324	2.965790196505	0.994310146949
2	332	2.966646196505	0.993905924727
2	342	2.966696196505	0.993905855283
2	349	2.966968196505	0.993747188616
2	360	2.966978196505	0.993747174727
2	365	2.967226196505	0.993630063616
2	371	2.967236196505	0.993630049727
2	379	2.968092196505	0.993130716394
2	392	2.968102196505	0.993130702505
2	399	2.968350196505	0.993013591394
2	411	2.968431826663	0.993013478019
2	418	2.968703826663	0.992885033574
2	427	2.968713826663	0.992885019685
2	434	2.968961826663	0.992767908574
2	443	2.968971826663	0.992767894685
2	448	2.969827826663	0.992363672463
2	459	2.969837826663	0.992363658574
2	466	2.970085826663	0.992246547463
2	476	2.970375826663	0.992246144685
2	484	2.971231826663	0.991841922463
2	498	2.971521826663	0.991841519685
2	505	2.971793826663	0.991713075241
2	514	2.971803826663	0.991713061352
2	519	2.972051826663	0.991595950241
2	528	2.972061826663	0.991595936352
2	533	2.972917826663	0.99119171413
2	544	2.972927826663	0.991191700241
2	553	2.973175826663	0.99107458913
2	560	2.973245826663	0.991074491907
2	568	2.973517826663	0.990915825241
2	579	2.973527826663	0.990915811352
2	584	2.973775826663	0.990798700241
2	590	2.973785826663	0.990798686352
2	596	2.974641826663	0.990299353019
2	609	2.974651826663	0.99029933913
2	616	2.974899826663	0.990182228019
2	623	2.974989826663	0.990182103019
2	631	2.975261826663	0.990023436352
2	642	2.975271826663	0.990023422463
2	647	2.975519826663	0.989906311352
2	653	2.975529826663	0.989906297463
2	659	2.976385826663	0.98940696413
2	672	2.976395826663	0.989406950241
2	679	2.976643826663	0.98928983913
2	693	2.977313826663	0.989288908574
2	699	2.978169826663	0.988884686352
2	711	2.978619826663	0.988884061352
2	719	2.979475826663	0.98847983913
2	732	2.979525826663	0.988479769685
2	740	2.979797826663	0.988351325241
2	749	2.979807826663	0.988351311352
2	754	2.980055826663	0.988234200241
2	763	2.980065826663	0.988234186352
2	768	2.980921826663	0.98782996413
2	779	2.980931826663	0.987829950241
2	786	2.981179826663	0.98771283913
2	793	2.981229826663	0.987712769685
2	801	2.981501826663	0.987554103019
2	812	2.981511826663	0.98755408913
2	817	2.981759826663	0.987436978019
2	823	2.981769826663	0.98743696413
2	829	2.982625826663	0.986937630796
2	842	2.982635826663	0.986937616907
2	849	2.982883826663	0.986820505796
2	858	2.983413826663	0.986819769685
2	866	2.983685826663	0.986661103019
2	877	2.983695826663	0.98666108913
2	882	2.983943826663	0.986543978019
2	888	2.983953826663	0.98654396413
2	898	2.984809826663	0.986044630796
2	911	2.984819826663	0.986044616907
2	920	2.985067826663	0.985927505796
2	930	2.985217826663	0.985927297463
2	937	2.985489826663	0.985798853019
2	946	2.985499826663	0.98579883913
2	951	2.985747826663	0.985681728019
2	960	2.985757826663	0.98568171413
2	965	2.986613826663	0.985277491907
2	976	2.986623826663	0.985277478019
2	983	2.986871826663	0.985160366907
2	993	2.987041826663	0.985160130796
2	1001	2.987897826663	0.984755908574
2	1015	2.987967826663	0.984755811352
2	1023	2.988823826663	0.98435158913
2	1037	2.988873826663	0.984351519685
2	1044	2.989145826663	0.984223075241
2	1053	2.989155826663	0.984223061352
2	1058	2.989403826663	0.984105950241
2	1067	2.989413826663	0.984105936352
2	1074	2.990269826663	0.98370171413
2	1085	2.990279826663	0.983701700241
2	1092	2.990527826663	0.98358458913
2	1099	2.990877826663	0.983584103019
2	1107	2.991149826663	0.983425436352
2	1118	2.991159826663	0.983425422463
2	1123	2.991407826663	0.983308311352
2	1129	2.991417826663	0.983308297463
2	1135	2.992273826663	0.98280896413
2	1148	2.992283826663	0.982808950241
2	1155	2.992531826663	0.98269183913
2	1165	2.992741826663	0.982691547463
2	1172	2.993013826663	0.982563103019
2	1181	2.993023826663	0.98256308913
2	1186	2.993271826663	0.982445978019
2	1195	2.993281826663	0.98244596413
2	1206	2.994137826663	0.982041741907
2	1217	2.994147826663	0.982041728019
2	1224	2.994395826663	0.981924616907
2	1231	2.994485826663	0.981924491907
2	1239	2.994757826663	0.981765825241
2	1250	2.994767826663	0.981765811352
2	1255	2.995015826663	0.981648700241
2	1261	2.995025826663	0.981648686352
2	1267	2.995881826663	0.981149353019
2	1280	2.995891826663	0.98114933913
2	1287	2.996139826663	0.981032228019
2	1297	2.996369826663	0.981031908574
2	1305	2.997225826663	0.980627686352
2	1319	2.997395826663	0.980627450241
2	1326	2.997667826663	0.980499005796
2	1335	2.997677826663	0.980498991907
2	1340	2.997925826663	0.980381880796
2	1349	2.997935826663	0.980381866907
2	1354	2.998791826663	0.979977644685
2	1365	2.998801826663	0.979977630796
2	1372	2.999049826663	0.979860519685
2	1379	2.999219826663	0.979860283574
2	1387	2.999491826663	0.979701616907
2	1398	2.999501826663	0.979701603019
2	1403	2.999749826663	0.979584491907
2	1409	2.999759826663	0.979584478019
2	1414	3	0.979444376905
2	1418	3.000615826663	0.979085144685
2	1431	3.000625826663	0.979085130796
2	1438	3.000873826663	0.978968019685
2	1448	3.001003826663	0.97896783913
2	1458	3.001859826663	0.978563616907
2	1468	3.002249826663	0.978563075241
2	1475	3.002521826663	0.978404408574
2	1486	3.002531826663	0.978404394685
2	1491	3.002779826663	0.978287283574
2	1497	3.002789826663	0.978287269685
2	1505	3.003645826663	0.977787936352
2	1518	3.003655826663	0.977787922463
2	1525	3.003903826663	0.977670811352
2	1537	3.004153826663	0.97767046413
2	1544	3.004425826663	0.977542019685
2	1553	3.004435826663	0.977542005796
2	1558	3.004683826663	0.977424894685
2	1567	3.004693826663	0.977424880796
2	1574	3.005549826663	0.977020658574
2	1585	3.005559826663	0.977020644685
2	1592	3.005807826663	0.976903533574
2	1599	3.005977826663	0.976903297463
2	1607	3.006249826663	0.976744630796
2	1618	3.006259826663	0.976744616907
2	1623	3.006507826663	0.976627505796
2	1629	3.006517826663	0.976627491907
2	1635	3.007373826663	0.976128158574
2	1648	3.007383826663	0.976128144685
2	1655	3.007631826663	0.976011033574
2	1667	3.008161826663	0.976010297463
2	1673	3.008433826663	0.975881853019
2	1682	3.008443826663	0.97588183913
2	1687	3.008691826663	0.975764728019
2	1696	3.008701826663	0.97576471413
2	1701	3.009557826663	0.975360491907
2	1712	3.009567826663	0.975360478019
2	1719	3.009815826663	0.975243366907
2	1730	3.010125826663	0.975242936352
2	1736	3.010981826663	0.97483871413
2	1748	3.011091826663	0.974838561352
2	1754	3.011947826663	0.97443433913
2	1766	3.012057826663	0.974434186352
2	1774	3.012913826663	0.97402996413
2	1787	3.012963826663	0.974029894685
2	1793	3.013235826663	0.973901450241
2	1802	3.013245826663	0.973901436352
2	1809	3.013493826663	0.973784325241
2	1818	3.013503826663	0.973784311352
2	1823	3.014359826663	0.97338008913
2	1834	3.014369826663	0.973380075241
2	1841	3.014617826663	0.97326296413
2	1848	3.014667826663	0.973262894685
2	1856	3.014939826663	0.973104228019
2	1867	3.014949826663	0.97310421413
2	1872	3.015197826663	0.972987103019
2	1878	3.015207826663	0.97298708913
2	1884	3.016063826663	0.972487755796
2	1897	3.016073826663	0.972487741907
2	1904	3.016321826663	0.972370630796
2	1915	3.016851826663	0.972369894685
2	1922	3.017123826663	0.972211228019
2	1933	3.017133826663	0.97221121413
2	1938	3.017381826663	0.972094103019
2	1944	3.017391826663	0.97209408913
2	1950	3.018247826663	0.971594755796
2	1963	3.018257826663	0.971594741907
2	1970	3.018505826663	0.971477630796
2	1981	3.018915826663	0.971477061352
2	1987	3.019771826663	0.97107283913
2	2002	3.020156483928	0.971072304883
2	2008	3.020428483928	0.970943860439
2	2017	3.020438483928	0.97094384655
2	2026	3.020686483928	0.970826735439
2	2035	3.020696483928	0.97082672155
2	2042	3.021552483928	0.970422499328
2	2053	3.021562483928	0.970422485439
2	2060	3.021810483928	0.970305374328
2	2067	3.021860483928	0.970305304883
2	2075	3.022132483928	0.970146638217
2	2086	3.022142483928	0.970146624328
2	2091	3.022390483928	0.970029513217
2	2097	3.022400483928	0.970029499328
2	2103	3.023256483928	0.969530165995
2	2116	3.023266483928	0.969530152106
2	2123	3.023514483928	0.969413040995
2	2135	3.023824483928	0.969412610439
2	2141	3.024096483928	0.969284165995
2	2150	3.024106483928	0.969284152106
2	2155	3.024354483928	0.969167040995
2	2164	3.024364483928	0.969167027106
2	2169	3.025220483928	0.968762804883
2	2180	3.025230483928	0.968762790995
2	2187	3.025478483928	0.968645679883
2	2196	3.025788483928	0.968645249328
2	2203	3.026644483928	0.968241027106
2	2216	3.027034483928	0.968240485439
2	2222	3.027306483928	0.968112040995
2	2231	3.027316483928	0.968112027106
2	2236	3.027564483928	0.967994915995
2	2245	3.027574483928	0.967994902106
2	2250	3.028430483928	0.967590679883
2	2261	3.028440483928	0.967590665995
2	2268	3.028688483928	0.967473554883
2	2277	3.028858483928	0.967473318772
2	2288	3.029714483928	0.96706909655
2	2298	3.029764483928	0.967069027106
2	2307	3.030036483928	0.966910360439
2	2318	3.030046483928	0.96691034655
2	2323	3.030294483928	0.966793235439
2	2329	3.030304483928	0.96679322155
2	2335	3.031160483928	0.966293888217
2	2348	3.031170483928	0.966293874328
2	2355	3.031418483928	0.966176763217
2	2365	3.031488483928	0.966176665995
2	2372	3.031760483928	0.96604822155
2	2381	3.031770483928	0.966048207661
2	2386	3.032018483928	0.96593109655
2	2395	3.032028483928	0.965931082661
2	2402	3.032884483928	0.965526860439
2	2413	3.032894483928	0.96552684655
2	2420	3.033142483928	0.965409735439
2	2429	3.033392483928	0.965409388217
2	2436	3.033664483928	0.96525072155
2	2447	3.033674483928	0.965250707661
2	2452	3.033922483928	0.96513359655
2	2458	3.033932483928	0.965133582661
2	2464	3.034788483928	0.964634249328
2	2477	3.034798483928	0.964634235439
2	2484	3.035046483928	0.964517124328
2	2493	3.035416483928	0.964516610439
2	2502	3.036272483928	0.964112388217
2	2516	3.036322483928	0.964112318772
2	2523	3.036594483928	0.963983874328
2	2532	3.036604483928	0.963983860439
2	2537	3.036852483928	0.963866749328
2	2546	3.036862483928	0.963866735439
2	2551	3.037718483928	0.963462513217
2	2562	3.037728483928	0.963462499328
2	2569	3.037976483928	0.963345388217
2	2579	3.038026483928	0.963345318772
2	2587	3.038882483928	0.96294109655
2	2597	3.039032483928	0.962940888217
2	2604	3.039304483928	0.96278222155
2	2615	3.039314483928	0.962782207661
2	2620	3.039562483928	0.96266509655
2	2626	3.039572483928	0.962665082661
2	2634	3.040428483928	0.962165749328
2	2647	3.040438483928	0.962165735439
2	2654	3.040686483928	0.962048624328
2	2661	3.040916483928	0.962048304883
2	2669	3.041188483928	0.961889638217
2	2680	3.041198483928	0.961889624328
2	2685	3.041446483928	0.961772513217
2	2691	3.041456483928	0.961772499328
2	2697	3.042312483928	0.961273165995
2	2710	3.042322483928	0.961273152106
2	2717	3.042570483928	0.961156040995
2	2732	3.042960483928	0.961155499328
2	2742	3.043816483928	0.960751277106
2	2755	3.043866483928	0.960751207661
2	2761	3.044138483928	0.960622763217
2	2770	3.044148483928	0.960622749328
2	2777	3.044396483928	0.960505638217
2	2786	3.044406483928	0.960505624328
2	2791	3.045262483928	0.960101402106
2	2802	3.045272483928	0.960101388217
2	2811	3.045520483928	0.959984277106
2	2818	3.045610483928	0.959984152106
2	2826	3.045882483928	0.959825485439
2	2837	3.045892483928	0.95982547155
2	2842	3.046140483928	0.959708360439
2	2848	3.046150483928	0.95970834655
2	2854	3.047006483928	0.959209013217
2	2867	3.047016483928	0.959208999328
2	2874	3.047264483928	0.959091888217
2	2884	3.047754483928	0.959091207661
2	2892	3.048610483928	0.958686985439
2	2905	3.048800483928	0.95868672155
2	2912	3.049656483928	0.958282499328
2	2925	3.049706483928	0.958282429883
2	2931	3.049978483928	0.958153985439
2	2940	3.049988483928	0.95815397155
2	2947	3.050236483928	0.958036860439
2	2956	3.050246483928	0.95803684655
2	2961	3.051102483928	0.957632624328
2	2972	3.051112483928	0.957632610439
2	2979	3.051360483928	0.957515499328
2	2986	3.051450483928	0.957515374328
2	2994	3.051722483928	0.957356707661
2	3005	3.051732483928	0.957356693772
2	3010	3.051980483928	0.957239582661
2	3016	3.051990483928	0.957239568772
2	3022	3.052846483928	0.956740235439
2	3035	3.052856483928	0.95674022155
2	3042	3.053104483928	0.956623110439
2	3052	3.053514483928	0.956622540995
2	3059	3.053786483928	0.95649409655
2	3068	3.053796483928	0.956494082661
2	3073	3.054044483928	0.95637697155
2	3082	3.054054483928	0.956376957661
2	3087	3.054910483928	0.955972735439
2	3098	3.054920483928	0.95597272155
2	3105	3.055168483928	0.955855610439
2	3117	3.055638483928	0.955854957661
2	3124	3.056494483928	0.955450735439
2	3139	3.056711693341	0.955450433759
2	3147	3.056983693341	0.955321989315
2	3156	3.056993693341	0.955321975426
2	3161	3.057241693341	0.955204864315
2	3170	3.057251693341	0.955204850426
2	3175	3.058107693341	0.954800628204
2	3186	3.058117693341	0.954800614315
2	3195	3.058365693341	0.954683503204
2	3202	3.058415693341	0.954683433759
2	3212	3.058687693341	0.954524767093
2	3223	3.058697693341	0.954524753204
2	3228	3.058945693341	0.954407642093
2	3234	3.058955693341	0.954407628204
2	3242	3.059811693341	0.95390829487
2	3255	3.059821693341	0.953908280981
2	3262	3.060069693341	0.95379116987
2	3272	3.060139693341	0.953791072648
2	3280	3.060995693341	0.953386850426
2	3294	3.061185693341	0.953386586537
2	3303	3.061457693341	0.953258142093
2	3312	3.061467693341	0.953258128204
2	3317	3.061715693341	0.953141017093
2	3326	3.061725693341	0.953141003204
2	3331	3.062581693341	0.952736780981
2	3342	3.062591693341	0.952736767093
2	3351	3.062839693341	0.952619655981
2	3361	3.062989693341	0.952619447648
2	3368	3.063261693341	0.952491003204
2	3377	3.063271693341	0.952490989315
2	3382	3.063519693341	0.952373878204
2	3391	3.063529693341	0.952373864315
2	3396	3.064385693341	0.951969642093
2	3407	3.064395693341	0.951969628204
2	3414	3.064643693341	0.951852517093
2	3421	3.065013693341	0.951852003204
2	3429	3.065285693341	0.951693336537
2	3440	3.065295693341	0.951693322648
2	3445	3.065543693341	0.951576211537
2	3451	3.065553693341	0.951576197648
2	3457	3.066409693341	0.951076864315
2	3470	3.066419693341	0.951076850426
2	3477	3.066667693341	0.950959739315
2	3489	3.066937693341	0.950959364315
2	3496	3.067793693341	0.950555142093
2	3506	3.067943693341	0.950554933759
2	3513	3.068215693341	0.950396267093
2	3524	3.068225693341	0.950396253204
2	3529	3.068473693341	0.950279142093
2	3535	3.068483693341	0.950279128204
2	3541	3.069339693341	0.94977979487
2	3554	3.069349693341	0.949779780981
2	3561	3.069597693341	0.94966266987
2	3567	3.069827693341	0.949662350426
2	3574	3.070099693341	0.949503683759
2	3585	3.070109693341	0.94950366987
2	3590	3.070357693341	0.949386558759
2	3596	3.070367693341	0.94938654487
2	3604	3.071223693341	0.948887211537
2	3617	3.071233693341	0.948887197648
2	3626	3.071481693341	0.948770086537
2	3636	3.071531693341	0.948770017093
2	3645	3.071803693341	0.948641572648
2	3654	3.071813693341	0.948641558759
2	3659	3.072061693341	0.948524447648
2	3668	3.072071693341	0.948524433759
2	3673	3.072927693341	0.948120211537
2	3684	3.072937693341	0.948120197648
2	3691	3.073185693341	0.948003086537
2	3701	3.073555693341	0.948002572648
2	3708	3.073827693341	0.947874128204
2	3717	3.073837693341	0.947874114315
2	3722	3.074085693341	0.947757003204
2	3731	3.074095693341	0.947756989315
2	3736	3.074951693341	0.947352767093
2	3747	3.074961693341	0.947352753204
2	3754	3.075209693341	0.947235642093
2	3763	3.075399693341	0.947235378204
2	3770	3.075671693341	0.947076711537
2	3781	3.075681693341	0.947076697648
2	3786	3.075929693341	0.946959586537
2	3792	3.075939693341	0.946959572648
2	3798	3.076795693341	0.946460239315
2	3811	3.076805693341	0.946460225426
2	3818	3.077053693341	0.946343114315
2	3827	3.077343693341	0.946342711537
2	3834	3.078199693341	0.945938489315
2	3846	3.078709693341	0.945937780981
2	3852	3.079565693341	0.945533558759
2	3864	3.079975693341	0.945532989315
2	3870	3.080831693341	0.945128767093
2	3882	3.080981693341	0.945128558759
2	3888	3.081837693341	0.944724336537
2	3900	3.082047693341	0.94472404487
2	3906	3.082903693341	0.944319822648
2	3918	3.083293693341	0.944319280981
2	3926	3.084149693341	0.943915058759
2	3939	3.084219693341	0.943914961537
2	3948	3.085075693341	0.943510739315
2	3962	3.085125693341	0.94351066987
2	3972	3.085981693341	0.943106447648
2	3986	3.086031693341	0.943106378204
2	3995	3.086303693341	0.942977933759
2	4004	3.086313693341	0.94297791987
2	4009	3.086561693341	0.942860808759
2	4018	3.086571693341	0.94286079487
2	4029	3.087427693341	0.942456572648
2	4040	3.087437693341	0.942456558759
2	4047	3.087685693341	0.942339447648
2	4057	3.087755693341	0.942339350426
2	4064	3.088027693341	0.942210905981
2	4073	3.088037693341	0.942210892093
2	4078	3.088285693341	0.942093780981
2	4087	3.088295693341	0.942093767093
2	4096	3.089151693341	0.94168954487
2	4107	3.089161693341	0.941689530981
2	4114	3.089409693341	0.94157241987
2	4124	3.089539693341	0.941572239315
2	4136	3.090395693341	0.941168017093
2	4147	3.090565693341	0.941167780981
2	4155	3.090837693341	0.941009114315
2	4166	3.090847693341	0.941009100426
2	4173	3.091095693341	0.940891989315
2	4179	3.091105693341	0.940891975426
2	4187	3.091961693341	0.940392642093
2	4200	3.091971693341	0.940392628204
2	4209	3.092219693341	0.940275517093
2	4219	3.092289693341	0.94027541987
2	4228	3.092561693341	0.940146975426
2	4237	3.092571693341	0.940146961537
2	4242	3.092819693341	0.940029850426
2	4251	3.092829693341	0.940029836537
2	4260	3.093685693341	0.939625614315
2	4271	3.093695693341	0.939625600426
2	4278	3.093943693341	0.939508489315
2	4285	3.094173693341	0.93950816987
2	4293	3.094445693341	0.939349503204
2	4304	3.094455693341	0.939349489315
2	4309	3.094703693341	0.939232378204
2	4315	3.094713693341	0.939232364315
2	4321	3.095569693341	0.938733030981
2	4334	3.095579693341	0.938733017093
2	4341	3.095827693341	0.938615905981
2	4348	3.096177693341	0.93861541987
2	4356	3.096449693341	0.938456753204
2	4367	3.096459693341	0.938456739315
2	4372	3.096707693341	0.938339628204
2	4378	3.096717693341	0.938339614315
2	4384	3.097573693341	0.937840280981
2	4397	3.097583693341	0.937840267093
2	4404	3.097831693341	0.937723155981
2	4414	3.097881693341	0.937723086537
2	4421	3.098153693341	0.937594642093
2	4430	3.098163693341	0.937594628204
2	4435	3.098411693341	0.937477517093
2	4444	3.098421693341	0.937477503204
2	4451	3.099277693341	0.937073280981
2	4462	3.099287693341	0.937073267093
2	4469	3.099535693341	0.936956155981
2	4476	3.099785693341	0.936955808759
2	4484	3.100057693341	0.936797142093
2	4495	3.100067693341	0.936797128204
2	4500	3.100315693341	0.936680017093
2	4506	3.100325693341	0.936680003204
2	4512	3.101181693341	0.93618066987
2	4525	3.101191693341	0.936180655981
2	4532	3.101439693341	0.93606354487
2	4542	3.101529693341	0.93606341987
2	4549	3.101801693341	0.935934975426
2	4558	3.101811693341	0.935934961537
2	4563	3.102059693341	0.935817850426
2	4572	3.102069693341	0.935817836537
2	4577	3.102925693341	0.935413614315
2	4588	3.102935693341	0.935413600426
2	4595	3.103183693341	0.935296489315
2	4602	3.103333693341	0.935296280981
2	4610	3.103605693341	0.935137614315
2	4621	3.103615693341	0.935137600426
2	4626	3.103863693341	0.935020489315
2	4632	3.103873693341	0.935020475426
2	4638	3.104729693341	0.934521142093
2	4651	3.104739693341	0.934521128204
2	4658	3.104987693341	0.934404017093
2	4668	3.105417693341	0.93440341987
2	4676	3.106273693341	0.933999197648
2	4690	3.106323693341	0.933999128204
2	4697	3.106595693341	0.933870683759
2	4706	3.106605693341	0.93387066987
2	4711	3.106853693341	0.933753558759
2	4720	3.106863693341	0.93375354487
2	4725	3.107719693341	0.933349322648
2	4736	3.107729693341	0.933349308759
2	4743	3.107977693341	0.933232197648
2	4750	3.108067693341	0.933232072648
2	4758	3.108339693341	0.933073405981
2	4769	3.108349693341	0.933073392093
2	4774	3.108597693341	0.932956280981
2	4780	3.108607693341	0.932956267093
2	4786	3.109463693341	0.932456933759
2	4799	3.109473693341	0.93245691987
2	4806	3.109721693341	0.932339808759
2	4816	3.109831693341	0.932339655981
2	4826	3.110687693341	0.931935433759
2	4840	3.110997693341	0.931935003204
2	4847	3.111269693341	0.931806558759
2	4856	3.111279693341	0.93180654487
2	4861	3.111527693341	0.931689433759
2	4870	3.111537693341	0.93168941987
2	4875	3.112393693341	0.931285197648
2	4886	3.112403693341	0.931285183759
2	4893	3.112651693341	0.931168072648
2	4900	3.112801693341	0.931167864315
2	4908	3.113073693341	0.931009197648
2	4919	3.113083693341	0.931009183759
2	4924	3.113331693341	0.930892072648
2	4930	3.113341693341	0.930892058759
2	4936	3.114197693341	0.930392725426
2	4949	3.114207693341	0.930392711537
2	4956	3.114455693341	0.930275600426
2	4963	3.114725693341	0.930275225426
2	4971	3.114997693341	0.930116558759
2	4982	3.115007693341	0.93011654487
2	4987	3.115255693341	0.929999433759
2	4993	3.115265693341	0.92999941987
2	5001	3.116121693341	0.929500086537
2	5014	3.116131693341	0.929500072648
2	5021	3.116379693341	0.929382961537
2	5028	3.116669693341	0.929382558759
2	5036	3.116941693341	0.929223892093
2	5047	3.116951693341	0.929223878204
2	5054	3.117199693341	0.929106767093
2	5060	3.117209693341	0.929106753204
2	5066	3.118065693341	0.92860741987
2	5079	3.118075693341	0.928607405981
2	5086	3.118323693341	0.92849029487
2	5096	3.118373693341	0.928490225426
2	5103	3.118645693341	0.928361780981
2	5112	3.118655693341	0.928361767093
2	5117	3.118903693341	0.928244655981
2	5126	3.118913693341	0.928244642093
2	5131	3.119769693341	0.92784041987
2	5142	3.119779693341	0.927840405981
2	5151	3.120027693341	0.92772329487
2	5158	3.120097693341	0.927723197648
2	5166	3.120369693341	0.927564530981
2	5177	3.120379693341	0.927564517093
2	5182	3.120627693341	0.927447405981
2	5188	3.120637693341	0.927447392093
2	5194	3.121493693341	0.926948058759
2	5207	3.121503693341	0.92694804487
2	5214	3.121751693341	0.926830933759
2	5221	3.122081693341	0.926830475426
2	5229	3.122353693341	0.926671808759
2	5240	3.122363693341	0.92667179487
2	5245	3.122611693341	0.926554683759
2	5251	3.122621693341	0.92655466987
2	5257	3.123477693341	0.926055336537
2	5270	3.123487693341	0.926055322648
2	5277	3.123735693341	0.925938211537
2	5287	3.123885693341	0.925938003204
2	5294	3.124157693341	0.925809558759
2	5303	3.124167693341	0.92580954487
2	5308	3.124415693341	0.925692433759
2	5317	3.124425693341	0.92569241987
2	5322	3.125281693341	0.925288197648
2	5333	3.125291693341	0.925288183759
2	5340	3.125539693341	0.925171072648
2	5350	3.125629693341	0.925170947648
2	5358	3.126485693341	0.924766725426
2	5371	3.126715693341	0.924766405981
2	5378	3.127571693341	0.924362183759
2	5391	3.127861693341	0.924361780981
2	5397	3.128133693341	0.924233336537
2	5406	3.128143693341	0.924233322648
2	5411	3.128391693341	0.924116211537
2	5420	3.128401693341	0.924116197648
2	5425	3.129257693341	0.923711975426
2	5436	3.129267693341	0.923711961537
2	5443	3.129515693341	0.923594850426
2	5453	3.129585693341	0.923594753204
2	5461	3.130441693341	0.923190530981
2	5474	3.130791693341	0.92319004487
2	5480	3.131063693341	0.923061600426
2	5489	3.131073693341	0.923061586537
2	5494	3.131321693341	0.922944475426
2	5503	3.131331693341	0.922944461537
2	5508	3.132187693341	0.922540239315
2	5519	3.132197693341	0.922540225426
2	5528	3.132445693341	0.922423114315
2	5538	3.132675693341	0.92242279487
2	5545	3.132947693341	0.922294350426
2	5554	3.132957693341	0.922294336537
2	5559	3.133205693341	0.922177225426
2	5568	3.133215693341	0.922177211537
2	5573	3.134071693341	0.921772989315
2	5584	3.134081693341	0.921772975426
2	5591	3.134329693341	0.921655864315
2	5608	3.134559693341	0.92165554487
2	5621	3.135415693341	0.921251322648
2	5632	3.135465693341	0.921251253204
2	5640	3.135737693341	0.921092586537
2	5651	3.135747693341	0.921092572648
2	5656	3.135995693341	0.920975461537
2	5662	3.136005693341	0.920975447648
2	5670	3.136861693341	0.920476114315
2	5683	3.136871693341	0.920476100426
2	5690	3.137119693341	0.920358989315
2	5700	3.137169693341	0.92035891987
2	5707	3.137441693341	0.920230475426
2	5716	3.137451693341	0.920230461537
2	5721	3.137699693341	0.920113350426
2	5730	3.137709693341	0.920113336537
2	5735	3.138565693341	0.919709114315
2	5746	3.138575693341	0.919709100426
2	5753	3.138823693341	0.919591989315
2	5760	3.138993693341	0.919591753204
2	5768	3.139265693341	0.919433086537
2	5779	3.139275693341	0.919433072648
2	5784	3.139523693341	0.919315961537
2	5790	3.139533693341	0.919315947648
2	5796	3.140389693341	0.918816614315
2	5809	3.140399693341	0.918816600426
2	5816	3.140647693341	0.918699489315
2	5826	3.140697693341	0.91869941987
2	5836	3.141553693341	0.918295197648
2	5850	3.141663693341	0.91829504487
2	5858	3.142519693341	0.917890822648
2	5872	3.142709693341	0.917890558759
2	5879	3.142981693341	0.917762114315
2	5888	3.142991693341	0.917762100426
2	5895	3.143239693341	0.917644989315
2	5904	3.143249693341	0.917644975426
2	5909	3.144105693341	0.917240753204
2	5920	3.144115693341	0.917240739315
2	5927	3.144363693341	0.917123628204
2	5934	3.144513693341	0.91712341987
2	5942	3.144785693341	0.916964753204
2	5953	3.144795693341	0.916964739315
2	5958	3.145043693341	0.916847628204
2	5964	3.145053693341	0.916847614315
2	5970	3.145909693341	0.916348280981
2	5983	3.145919693341	0.916348267093
2	5990	3.146167693341	0.916231155981
2	6000	3.146377693341	0.916230864315
2	6007	3.146649693341	0.91610241987
2	6016	3.146659693341	0.916102405981
2	6021	3.146907693341	0.91598529487
2	6030	3.146917693341	0.915985280981
2	6037	3.147773693341	0.915581058759
2	6048	3.147783693341	0.91558104487
2	6055	3.148031693341	0.915463933759
2	6065	3.148101693341	0.915463836537
2	6075	3.148957693341	0.915059614315
2	6086	3.149307693341	0.915059128204
2	6094	3.149579693341	0.914900461537
2	6105	3.149589693341	0.914900447648
2	6110	3.149837693341	0.914783336537
2	6116	3.149847693341	0.914783322648
2	6124	3.150703693341	0.914283989315
2	6137	3.150713693341	0.914283975426
2	6144	3.150961693341	0.914166864315
2	6156	3.151271693341	0.914166433759
2	6163	3.151543693341	0.914037989315
2	6172	3.151553693341	0.914037975426
2	6177	3.151801693341	0.913920864315
2	6186	3.151811693341	0.913920850426
2	6193	3.152667693341	0.913516628204
2	6204	3.152677693341	0.913516614315
2	6213	3.152925693341	0.913399503204
2	6220	3.153215693341	0.913399100426
2	6228	3.153487693341	0.913240433759
2	6239	3.153497693341	0.91324041987
2	6244	3.153745693341	0.913123308759
2	6250	3.153755693341	0.91312329487
2	6256	3.154611693341	0.912623961537
2	6269	3.154621693341	0.912623947648
2	6276	3.154869693341	0.912506836537
2	6283	3.155059693341	0.912506572648
2	6291	3.155331693341	0.912347905981
2	6302	3.155341693341	0.912347892093
2	6307	3.155589693341	0.912230780981
2	6313	3.155599693341	0.912230767093
2	6319	3.156455693341	0.911731433759
2	6332	3.156465693341	0.91173141987
2	6339	3.156713693341	0.911614308759
2	6349	3.156843693341	0.911614128204
2	6356	3.157115693341	0.911485683759
2	6365	3.157125693341	0.91148566987
2	6370	3.157373693341	0.911368558759
2	6379	3.157383693341	0.91136854487
2	6384	3.158239693341	0.910964322648
2	6395	3.158249693341	0.910964308759
2	6402	3.158497693341	0.910847197648
2	6412	3.158587693341	0.910847072648
2	6419	3.158859693341	0.910718628204
2	6428	3.158869693341	0.910718614315
2	6433	3.159117693341	0.910601503204
2	6442	3.159127693341	0.910601489315
2	6447	3.159983693341	0.910197267093
2	6458	3.159993693341	0.910197253204
2	6465	3.160241693341	0.910080142093
2	6475	3.160331693341	0.910080017093
2	6483	3.161187693341	0.90967579487
2	6493	3.161477693341	0.909675392093
2	6502	3.161749693341	0.909516725426
2	6513	3.161759693341	0.909516711537
2	6520	3.162007693341	0.909399600426
2	6526	3.162017693341	0.909399586537
2	6532	3.162873693341	0.908900253204
2	6545	3.162883693341	0.908900239315
2	6552	3.163131693341	0.908783128204
2	6559	3.163421693341	0.908782725426
2	6567	3.163693693341	0.908624058759
2	6578	3.163703693341	0.90862404487
2	6583	3.163951693341	0.908506933759
2	6589	3.163961693341	0.90850691987
2	6595	3.164817693341	0.908007586537
2	6608	3.164827693341	0.908007572648
2	6615	3.165075693341	0.907890461537
2	6625	3.165225693341	0.907890253204
2	6632	3.165497693341	0.907761808759
2	6641	3.165507693341	0.90776179487
2	6646	3.165755693341	0.907644683759
2	6655	3.165765693341	0.90764466987
2	6660	3.166621693341	0.907240447648
2	6671	3.166631693341	0.907240433759
2	6678	3.166879693341	0.907123322648
2	6688	3.166929693341	0.907123253204
2	6696	3.167785693341	0.906719030981
2	6708	3.168175693341	0.906718489315
2	6714	3.169031693341	0.906314267093
2	6726	3.169481693341	0.906313642093
2	6734	3.170337693341	0.90590941987
2	6747	3.170627693341	0.905909017093
2	6753	3.170899693341	0.905780572648
2	6762	3.170909693341	0.905780558759
2	6767	3.171157693341	0.905663447648
2	6776	3.171167693341	0.905663433759
2	6783	3.172023693341	0.905259211537
2	6794	3.172033693341	0.905259197648
2	6801	3.172281693341	0.905142086537
2	6811	3.172691693341	0.905141517093
2	6820	3.172963693341	0.905013072648
2	6829	3.172973693341	0.905013058759
2	6834	3.173221693341	0.904895947648
2	6843	3.173231693341	0.904895933759
2	6848	3.174087693341	0.904491711537
2	6859	3.174097693341	0.904491697648
2	6866	3.174345693341	0.904374586537
2	6873	3.174515693341	0.904374350426
2	6883	3.174787693341	0.904215683759
2	6894	3.174797693341	0.90421566987