version 2
run Ten-0-20090820-15:31:54-22160
attr configname Ten
attr datetime 20090820-15:31:54
attr experiment Ten
attr inifile omnetpp.ini
attr iterationvars ""
attr iterationvars2 $repetition=0
attr measurement ""
attr network sim
attr processid 22160
attr repetition 0
attr replication #0
attr resultdir results
attr runnumber 0
attr seedset 0

vector 2  sim.host[0].batteryStats  capacity(relative)  ETV
vector 7  sim.host[1].batteryStats  capacity(relative)  ETV
vector 12  sim.host[2].batteryStats  capacity(relative)  ETV
vector 17  sim.host[3].batteryStats  capacity(relative)  ETV
vector 22  sim.host[4].batteryStats  capacity(relative)  ETV
vector 27  sim.host[5].batteryStats  capacity(relative)  ETV
vector 32  sim.host[6].batteryStats  capacity(relative)  ETV
vector 37  sim.host[7].batteryStats  capacity(relative)  ETV
vector 42  sim.host[8].batteryStats  capacity(relative)  ETV
vector 47  sim.host[9].batteryStats  capacity(relative)  ETV
vector 52  sim.host[10].batteryStats  capacity(relative)  ETV
vector 57  sim.host[11].batteryStats  capacity(relative)  ETV
vector 62  sim.host[12].batteryStats  capacity(relative)  ETV
vector 67  sim.host[13].batteryStats  capacity(relative)  ETV
vector 72  sim.host[14].batteryStats  capacity(relative)  ETV
vector 77  sim.host[15].batteryStats  capacity(relative)  ETV
vector 82  sim.host[16].batteryStats  capacity(relative)  ETV
vector 87  sim.host[17].batteryStats  capacity(relative)  ETV
vector 92  sim.host[18].batteryStats  capacity(relative)  ETV
vector 97  sim.host[19].batteryStats  capacity(relative)  ETV
2	0	1
2	0.25	1
2	0.5	1
2	0.75	0.999968441395
2	1	0.999957840866
2	1.25	0.999957840866
2	1.5	0.999957840866
2	1.75	0.999957840866
2	2	0.999916294972
2	2.25	0.999916294972
2	2.5	0.999897364864
2	2.75	0.999885911862
2	3	0.999874351072
2	3.25	0.999874351072
2	3.5	0.999874351072
2	3.75	0.999842740881
2	4	0.999832269785
2	4.25	0.999821533829
2	4.5	0.999819128698
2	4.75	0.999819128698
2	5	0.999789802445
2	5.25	0.999779672275
2	5.5	0.999779672275
2	5.75	0.999757373143
2	6	0.999746648977
2	6.25	0.999735969612
2	6.5	0.999731294992
2	6.75	0.999731294992
2	7	0.999704501584
2	7.25	0.999693943398
2	7.5	0.999692007224
2	7.75	0.999692007224
2	8	0.999662346032
2	8.25	0.999658649327
2	8.5	0.999658649327
2	8.75	0.999633704304
2	9	0.999620381435
2	9.25	0.999620381435
2	9.5	0.999599326696
2	9.75	0.999592399005
2	10	0.999578195499
2	10.25	0.999578195499
2	10.5	0.999578195499
2	10.75	0.999578195499
2	11	0.999536649605
2	11.25	0.999536649605
2	11.5	0.999536649605
2	11.75	0.999536649605
2	12	0.999495103711
2	12.25	0.999495103711
2	12.5	0.999495103711
2	12.75	0.999495103711
2	13	0.999453557818
2	13.25	0.999453557818
2	13.5	0.999453557818
2	13.75	0.999453557818
2	14	0.999412011924
2	14.25	0.999412011924
2	14.5	0.999412011924
2	14.75	0.999412011924
7	0	1
7	0.25	1
7	0.5	1
7	0.75	0.999967883432
7	1	0.999957229772
7	1.25	0.999957229772
7	1.5	0.999957229772
7	1.75	0.999957229772
7	2	0.999915683878
7	2.25	0.999915683878
7	2.5	0.999894708147
7	2.75	0.999894708147
7	3	0.99987331589
7	3.25	0.99987331589
7	3.5	0.99987331589
7	3.75	0.999841724268
7	4	0.999830799296
7	4.25	0.999821365838
7	4.5	0.99981795583
7	4.75	0.99981795583
7	5	0.999788573359
7	5.25	0.999778616715
7	5.5	0.999778616715
7	5.75	0.999755862097
7	6	0.999745216853
7	6.25	0.999734325986
7	6.5	0.999729475899
7	6.75	0.999729475899
7	7	0.999702682491
7	7.25	0.999692130537
7	7.5	0.999690337011
7	7.75	0.999690337011
7	8	0.999660740161
7	8.25	0.999658167146
7	8.5	0.999658167146
7	8.75	0.999632178053
7	9	0.999618855183
7	9.25	0.999608465998
7	9.5	0.999600591163
7	9.75	0.999590339338
7	10	0.999576135832
7	10.25	0.999576135832
7	10.5	0.999576135832
7	10.75	0.999576135832
7	11	0.999534589939
7	11.25	0.999534589939
7	11.5	0.999534589939
7	11.75	0.999534589939
7	12	0.999493044045
7	12.25	0.999493044045
7	12.5	0.999493044045
7	12.75	0.999493044045
7	13	0.999451498151
7	13.25	0.999451498151
7	13.5	0.999451498151
7	13.75	0.999451498151
7	14	0.999409952258
7	14.25	0.999409952258
7	14.5	0.999409952258
7	14.75	0.999409952258
12	0	1
12	0.25	1
12	0.5	1
12	0.75	0.999967725546
12	1	0.999957033469
12	1.25	0.999957033469
12	1.5	0.999957033469
12	1.75	0.999957033469
12	2	0.999915487575
12	2.25	0.999915487575
12	2.5	0.999894501127
12	2.75	0.999883850221
12	3	0.999872611579
12	3.25	0.999872611579
12	3.5	0.999872611579
12	3.75	0.99984100286
12	4	0.999830051116
12	4.25	0.999819349774
12	4.5	0.999816929254
12	4.75	0.999816929254
12	5	0.999787552596
12	5.25	0.999777258371
12	5.5	0.999777258371
12	5.75	0.999754410028
12	6	0.999743749527
12	6.25	0.999732860179
12	6.5	0.999727977883
12	6.75	0.999727977883
12	7	0.999701184475
12	7.25	0.99969020512
12	7.5	0.999688353787
12	7.75	0.999688353787
12	8	0.999658633654
12	8.25	0.999654905433
12	8.5	0.999654905433
12	8.75	0.999629435455
12	9	0.999616123304
12	9.25	0.999605762001
12	9.5	0.999594797831
12	9.75	0.999587435695
12	10	0.999573242908
12	10.25	0.999573242908
12	10.5	0.999573242908
12	10.75	0.999573242908
12	11	0.999531697014
12	11.25	0.999531697014
12	11.5	0.999531697014
12	11.75	0.999531697014
12	12	0.999490151121
12	12.25	0.999490151121
12	12.5	0.999490151121
12	12.75	0.999490151121
12	13	0.999448605227
12	13.25	0.999448605227
12	13.5	0.999448605227
12	13.75	0.999448605227
12	14	0.999407059333
12	14.25	0.999407059333
12	14.5	0.999407059333
12	14.75	0.999407059333
17	0	1
17	0.25	1
17	0.5	1
17	0.75	0.999967763963
17	1	0.999957107215
17	1.25	0.999957107215
17	1.5	0.999957107215
17	1.75	0.999957107215
17	2	0.999915561322
17	2.25	0.999915561322
17	2.5	0.999894577894
17	2.75	0.999883926989
17	3	0.999872688346
17	3.25	0.999872688346
17	3.5	0.999872688346
17	3.75	0.999841003337
17	4	0.999830051139
17	4.25	0.999819236279
17	4.5	0.999816854827
17	4.75	0.999816854827
17	5	0.999787565046
17	5.25	0.999777095714
17	5.5	0.999777095714
17	5.75	0.999754235949
17	6	0.999743673959
17	6.25	0.999733066793
17	6.5	0.999728417636
17	6.75	0.999728417636
17	7	0.999701624228
17	7.25	0.999690330328
17	7.5	0.999688322473
17	7.75	0.999688322473
17	8	0.999658665132
17	8.25	0.999654891138
17	8.5	0.999654891138
17	8.75	0.999629456035
17	9	0.999616143884
17	9.25	0.999605754699
17	9.5	0.999594350954
17	9.75	0.999586977243
17	10	0.999572784456
17	10.25	0.999572784456
17	10.5	0.999572784456
17	10.75	0.999572784456
17	11	0.999531238562
17	11.25	0.999531238562
17	11.5	0.999531238562
17	11.75	0.999531238562
17	12	0.999489692669
17	12.25	0.999489692669
17	12.5	0.999489692669
17	12.75	0.999489692669
17	13	0.999448146775
17	13.25	0.999448146775
17	13.5	0.999448146775
17	13.75	0.999448146775
17	14	0.999406600881
17	14.25	0.999406600881
17	14.5	0.999406600881
17	14.75	0.999406600881
22	0	1
22	0.25	1
22	0.5	1
22	0.75	0.999967802101
22	1	0.999957151528
22	1.25	0.999957151528
22	1.5	0.999957151528
22	1.75	0.999957151528
22	2	0.999915605635
22	2.25	0.999915605635
22	2.5	0.999894573637
22	2.75	0.999884580391
22	3	0.999873019602
22	3.25	0.999873019602
22	3.5	0.999873019602
22	3.75	0.999841637553
22	4	0.999830921467
22	4.25	0.999819945376
22	4.5	0.99981752744
22	4.75	0.99981752744
22	5	0.999788198917
22	5.25	0.999777759897
22	5.5	0.999777759897
22	5.75	0.999754896071
22	6	0.999744197517
22	6.25	0.999733344795
22	6.5	0.999728532853
22	6.75	0.999728532853
22	7	0.999701739445
22	7.25	0.999690915698
22	7.5	0.999688859004
22	7.75	0.999688859004
22	8	0.999659153219
22	8.25	0.999655384682
22	8.5	0.999655384682
22	8.75	0.99963036337
22	9	0.9996170405
22	9.25	0.99960665357
22	9.5	0.99959539471
22	9.75	0.999588205212
22	10	0.999574001706
22	10.25	0.999574001706
22	10.5	0.999574001706
22	10.75	0.999574001706
22	11	0.999532455812
22	11.25	0.999532455812
22	11.5	0.999532455812
22	11.75	0.999532455812
22	12	0.999490909919
22	12.25	0.999490909919
22	12.5	0.999490909919
22	12.75	0.999490909919
22	13	0.999449364025
22	13.25	0.999449364025
22	13.5	0.999449364025
22	13.75	0.999449364025
22	14	0.999407818131
22	14.25	0.999407818131
22	14.5	0.999407818131
22	14.75	0.999407818131
27	0	1
27	0.25	1
27	0.5	1
27	0.75	0.999968422333
27	1	0.999957889074
27	1.25	0.999957889074
27	1.5	0.999957889074
27	1.75	0.999957889074
27	2	0.999916343181
27	2.25	0.999916343181
27	2.5	0.999895606387
27	2.75	0.999885083539
27	3	0.999873844897
27	3.25	0.999873844897
27	3.5	0.999873844897
27	3.75	0.999842222547
27	4	0.999831534431
27	4.25	0.999820718484
27	4.5	0.999818300547
27	4.75	0.999818300547
27	5	0.999788991021
27	5.25	0.999778789147
27	5.5	0.999778789147
27	5.75	0.999756395058
27	6	0.999745727384
27	6.25	0.999734961232
27	6.5	0.999730132517
27	6.75	0.999730132517
27	7	0.999703339109
27	7.25	0.999692104334
27	7.5	0.99969004764
27	7.75	0.99969004764
27	8	0.999660556102
27	8.25	0.99965696817
27	8.5	0.99965696817
27	8.75	0.999631446423
27	9	0.999618134272
27	9.25	0.999607747342
27	9.5	0.999596423033
27	9.75	0.999589134741
27	10	0.999574941954
27	10.25	0.999574941954
27	10.5	0.999574941954
27	10.75	0.999574941954
27	11	0.99953339606
27	11.25	0.99953339606
27	11.5	0.99953339606
27	11.75	0.99953339606
27	12	0.999491850166
27	12.25	0.999491850166
27	12.5	0.999491850166
27	12.75	0.999491850166
27	13	0.999450304272
27	13.25	0.999450304272
27	13.5	0.999450304272
27	13.75	0.999450304272
27	14	0.999408758379
27	14.25	0.999408758379
27	14.5	0.999408758379
27	14.75	0.999408758379
32	0	1
32	0.25	1
32	0.5	1
32	0.75	0.999969015111
32	1	0.99995828075
32	1.25	0.99995828075
32	1.5	0.99995828075
32	1.75	0.99995828075
32	2	0.999916734856
32	2.25	0.999916734856
32	2.5	0.999898073347
32	2.75	0.999885997135
32	3	0.999874758493
32	3.25	0.999874758493
32	3.5	0.999874758493
32	3.75	0.999843101836
32	4	0.999832706759
32	4.25	0.99982215517
32	4.5	0.999819799173
32	4.75	0.999819799173
32	5	0.999790583566
32	5.25	0.999780415899
32	5.5	0.999780415899
32	5.75	0.999758204906
32	6	0.999747628348
32	6.25	0.999738110444
32	6.5	0.999732740602
32	6.75	0.999732740602
32	7	0.999705936475
32	7.25	0.999695060029
32	7.5	0.999693067364
32	7.75	0.999693067364
32	8	0.99966338165
32	8.25	0.999659613347
32	8.5	0.999659613347
32	8.75	0.999635404439
32	9	0.999621366232
32	9.25	0.999621366232
32	9.5	0.999600407701
32	9.75	0.999594568557
32	10	0.999579197196
32	10.25	0.999579197196
32	10.5	0.999579197196
32	10.75	0.999579197196
32	11	0.999537651302
32	11.25	0.999537651302
32	11.5	0.999537651302
32	11.75	0.999537651302
32	12	0.999496105409
32	12.25	0.999496105409
32	12.5	0.999496105409
32	12.75	0.999496105409
32	13	0.999454559515
32	13.25	0.999454559515
32	13.5	0.999454559515
32	13.75	0.999454559515
32	14	0.999413013621
32	14.25	0.999413013621
32	14.5	0.999413013621
32	14.75	0.999413013621
37	0	1
37	0.25	1
37	0.5	1
37	0.75	0.999968071558
37	1	0.999957531515
37	1.25	0.999957531515
37	1.5	0.999957531515
37	1.75	0.999957531515
37	2	0.999915985621
37	2.25	0.999915985621
37	2.5	0.999895006802
37	2.75	0.999895006802
37	3	0.999873614545
37	3.25	0.999873614545
37	3.5	0.999873614545
37	3.75	0.999842095963
37	4	0.999831136115
37	4.25	0.999820492717
37	4.5	0.999818126524
37	4.75	0.999818126524
37	5	0.999788839869
37	5.25	0.99977860577
37	5.5	0.99977860577
37	5.75	0.999755820119
37	6	0.999745258522
37	6.25	0.999734466343
37	6.5	0.999729663721
37	6.75	0.999729663721
37	7	0.999702870313
37	7.25	0.999692058554
37	7.5	0.999690104102
37	7.75	0.999690104102
37	8	0.99966063873
37	8.25	0.999657767973
37	8.5	0.999657767973
37	8.75	0.999632025329
37	9	0.99961870246
37	9.25	0.999608313274
37	9.5	0.999597545354
37	9.75	0.999590143222
37	10	0.999575939716
37	10.25	0.999575939716
37	10.5	0.999575939716
37	10.75	0.999575939716
37	11	0.999534393822
37	11.25	0.999534393822
37	11.5	0.999534393822
37	11.75	0.999534393822
37	12	0.999492847928
37	12.25	0.999492847928
37	12.5	0.999492847928
37	12.75	0.999492847928
37	13	0.999451302035
37	13.25	0.999451302035
37	13.5	0.999451302035
37	13.75	0.999451302035
37	14	0.999409756141
37	14.25	0.999409756141
37	14.5	0.999409756141
37	14.75	0.999409756141
42	0	1
42	0.25	1
42	0.5	1
42	0.75	0.999968617764
42	1	0.999958107393
42	1.25	0.999958107393
42	1.5	0.999958107393
42	1.75	0.999958107393
42	2	0.9999165615
42	2.25	0.9999165615
42	2.5	0.999897396147
42	2.75	0.999885732888
42	3	0.999874494245
42	3.25	0.999874494245
42	3.5	0.999874494245
42	3.75	0.999842837588
42	4	0.999832229171
42	4.25	0.999821477707
42	4.5	0.999819085382
42	4.75	0.999819085382
42	5	0.999789794826
42	5.25	0.999779538794
42	5.5	0.999779538794
42	5.75	0.999757170069
42	6	0.999746473695
42	6.25	0.999735784915
42	6.5	0.999731043636
42	6.75	0.999731043636
42	7	0.999704250228
42	7.25	0.999693243725
42	7.5	0.999691225449
42	7.75	0.999691225449
42	8	0.999661545546
42	8.25	0.999657777242
42	8.5	0.999657777242
42	8.75	0.999632408075
42	9	0.999619095925
42	9.25	0.999608716623
42	9.5	0.999597717879
42	9.75	0.999590743811
42	10	0.999576540305
42	10.25	0.999576540305
42	10.5	0.999576540305
42	10.75	0.999576540305
42	11	0.999534994412
42	11.25	0.999534994412
42	11.5	0.999534994412
42	11.75	0.999534994412
42	12	0.999493448518
42	12.25	0.999493448518
42	12.5	0.999493448518
42	12.75	0.999493448518
42	13	0.999451902624
42	13.25	0.999451902624
42	13.5	0.999451902624
42	13.75	0.999451902624
42	14	0.99941035673
42	14.25	0.99941035673
42	14.5	0.99941035673
42	14.75	0.99941035673
47	0	1
47	0.25	1
47	0.5	1
47	0.75	0.999968033958
47	1	0.999957548313
47	1.25	0.999957548313
47	1.5	0.999957548313
47	1.75	0.999957548313
47	2	0.999916002419
47	2.25	0.999916002419
47	2.5	0.999895113208
47	2.75	0.999884681535
47	3	0.999873442893
47	3.25	0.999873442893
47	3.5	0.999873442893
47	3.75	0.99984365285
47	4	0.999831231584
47	4.25	0.999821045917
47	4.5	0.999821045917
47	4.75	0.999821045917
47	5	0.999789271842
47	5.25	0.999779440993
47	5.5	0.999779440993
47	5.75	0.999757075742
47	6	0.999746412085
47	6.25	0.999735523707
47	6.5	0.99973071025
47	6.75	0.99973071025
47	7	0.999703916842
47	7.25	0.999693310127
47	7.5	0.999692533167
47	7.75	0.999692533167
47	8	0.999661940694
47	8.25	0.999658345845
47	8.5	0.999658345845
47	8.75	0.999632875866
47	9	0.999619563716
47	9.25	0.999609174531
47	9.5	0.999598087591
47	9.75	0.999590695396
47	10	0.999576502609
47	10.25	0.999576502609
47	10.5	0.999576502609
47	10.75	0.999576502609
47	11	0.999534956715
47	11.25	0.999534956715
47	11.5	0.999534956715
47	11.75	0.999534956715
47	12	0.999493410821
47	12.25	0.999493410821
47	12.5	0.999493410821
47	12.75	0.999493410821
47	13	0.999451864927
47	13.25	0.999451864927
47	13.5	0.999451864927
47	13.75	0.999451864927
47	14	0.999410319034
47	14.25	0.999410319034
47	14.5	0.999410319034
47	14.75	0.999410319034
52	0	1
52	0.25	1
52	0.5	1
52	0.75	0.999967680953
52	1	0.999957027293
52	1.25	0.999957027293
52	1.5	0.999957027293
52	1.75	0.999957027293
52	2	0.999915481399
52	2.25	0.999915481399
52	2.5	0.999894498039
52	2.75	0.999883917634
52	3	0.999872678991
52	3.25	0.999872678991
52	3.5	0.999872678991
52	3.75	0.999841059082
52	4	0.999829990589
52	4.25	0.999818918687
52	4.5	0.99981650075
52	4.75	0.99981650075
52	5	0.999787410905
52	5.25	0.999776997571
52	5.5	0.999776997571
52	5.75	0.999754084705
52	6	0.999743334927
52	6.25	0.999732394357
52	6.5	0.999727563284
52	6.75	0.999727563284
52	7	0.999700769876
52	7.25	0.999689641922
52	7.5	0.999687585228
52	7.75	0.999687585228
52	8	0.999657902237
52	8.25	0.999654133934
52	8.5	0.999654133934
52	8.75	0.999628612187
52	9	0.999615300037
52	9.25	0.999604910851
52	9.5	0.99959354631
52	9.75	0.999586141544
52	10	0.999571948757
52	10.25	0.999571948757
52	10.5	0.999571948757
52	10.75	0.999571948757
52	11	0.999530402864
52	11.25	0.999530402864
52	11.5	0.999530402864
52	11.75	0.999530402864
52	12	0.99948885697
52	12.25	0.99948885697
52	12.5	0.99948885697
52	12.75	0.99948885697
52	13	0.999447311076
52	13.25	0.999447311076
52	13.5	0.999447311076
52	13.75	0.999447311076
52	14	0.999405765182
52	14.25	0.999405765182
52	14.5	0.999405765182
52	14.75	0.999405765182
57	0	1
57	0.25	1
57	0.5	1
57	0.75	0.999967789575
57	1	0.999957135915
57	1.25	0.999957135915
57	1.5	0.999957135915
57	1.75	0.999957135915
57	2	0.999915590021
57	2.25	0.999915590021
57	2.5	0.999894606661
57	2.75	0.999884298579
57	3	0.999873049217
57	3.25	0.999873049217
57	3.5	0.999873049217
57	3.75	0.999841457596
57	4	0.999830483329
57	4.25	0.999820953345
57	4.5	0.999817543337
57	4.75	0.999817543337
57	5	0.999788160867
57	5.25	0.999778000707
57	5.5	0.999778000707
57	5.75	0.999755546801
57	6	0.999744901557
57	6.25	0.999734053648
57	6.5	0.999729132934
57	6.75	0.999729132934
57	7	0.999702339527
57	7.25	0.999691441238
57	7.5	0.999689647712
57	7.75	0.999689647712
57	8	0.999660050862
57	8.25	0.999657477847
57	8.5	0.999657477847
57	8.75	0.999631064608
57	9	0.999617752458
57	9.25	0.999607363273
57	9.5	0.999599387951
57	9.75	0.999588784087
57	10	0.9995745913
57	10.25	0.9995745913
57	10.5	0.9995745913
57	10.75	0.9995745913
57	11	0.999533045407
57	11.25	0.999533045407
57	11.5	0.999533045407
57	11.75	0.999533045407
57	12	0.999491499513
57	12.25	0.999491499513
57	12.5	0.999491499513
57	12.75	0.999491499513
57	13	0.999449953619
57	13.25	0.999449953619
57	13.5	0.999449953619
57	13.75	0.999449953619
57	14	0.999408407726
57	14.25	0.999408407726
57	14.5	0.999408407726
57	14.75	0.999408407726
62	0	1
62	0.25	1
62	0.5	1
62	0.75	0.999967774657
62	1	0.999957105467
62	1.25	0.999957105467
62	1.5	0.999957105467
62	1.75	0.999957105467
62	2	0.999915559573
62	2.25	0.999915559573
62	2.5	0.999894583254
62	2.75	0.999884079085
62	3	0.999872840442
62	3.25	0.999872840442
62	3.5	0.999872840442
62	3.75	0.999841457924
62	4	0.999830786917
62	4.25	0.999821340472
62	4.5	0.999817930464
62	4.75	0.999817930464
62	5	0.999788593767
62	5.25	0.999778461745
62	5.5	0.999778461745
62	5.75	0.999755703951
62	6	0.999745089223
62	6.25	0.999734190158
62	6.5	0.999729320668
62	6.75	0.999729320668
62	7	0.99970252726
62	7.25	0.999691708054
62	7.5	0.999690254342
62	7.75	0.999690254342
62	8	0.999660319787
62	8.25	0.999656808918
62	8.5	0.999656808918
62	8.75	0.999631331308
62	9	0.999618019157
62	9.25	0.99960763306
62	9.5	0.999596480366
62	9.75	0.999589036642
62	10	0.999574843855
62	10.25	0.999574843855
62	10.5	0.999574843855
62	10.75	0.999574843855
62	11	0.999533297961
62	11.25	0.999533297961
62	11.5	0.999533297961
62	11.75	0.999533297961
62	12	0.999491752068
62	12.25	0.999491752068
62	12.5	0.999491752068
62	12.75	0.999491752068
62	13	0.999450206174
62	13.25	0.999450206174
62	13.5	0.999450206174
62	13.75	0.999450206174
62	14	0.99940866028
62	14.25	0.99940866028
62	14.5	0.99940866028
62	14.75	0.99940866028
67	0	1
67	0.25	1
67	0.5	1
67	0.75	0.999967669411
67	1	0.999957057256
67	1.25	0.999957057256
67	1.5	0.999957057256
67	1.75	0.999957057256
67	2	0.999915511362
67	2.25	0.999915511362
67	2.5	0.999894401397
67	2.75	0.999883897282
67	3	0.99987265864
67	3.25	0.99987265864
67	3.5	0.99987265864
67	3.75	0.999841041818
67	4	0.99983008197
67	4.25	0.999819050385
67	4.5	0.999816792294
67	4.75	0.999816792294
67	5	0.999787480409
67	5.25	0.999776951354
67	5.5	0.999776951354
67	5.75	0.999754223638
67	6	0.999743639973
67	6.25	0.999732779808
67	6.5	0.999728010843
67	6.75	0.999728010843
67	7	0.999701217436
67	7.25	0.99969030609
67	7.5	0.999688249397
67	7.75	0.999688249397
67	8	0.999658589294
67	8.25	0.999654801555
67	8.5	0.999654801555
67	8.75	0.999629627664
67	9	0.999616304794
67	9.25	0.999605915609
67	9.5	0.999594571298
67	9.75	0.999587308594
67	10	0.999573105088
67	10.25	0.999573105088
67	10.5	0.999573105088
67	10.75	0.999573105088
67	11	0.999531559194
67	11.25	0.999531559194
67	11.5	0.999531559194
67	11.75	0.999531559194
67	12	0.9994900133
67	12.25	0.9994900133
67	12.5	0.9994900133
67	12.75	0.9994900133
67	13	0.999448467407
67	13.25	0.999448467407
67	13.5	0.999448467407
67	13.75	0.999448467407
67	14	0.999406921513
67	14.25	0.999406921513
67	14.5	0.999406921513
67	14.75	0.999406921513
72	0	1
72	0.25	1
72	0.5	1
72	0.75	0.999968126976
72	1	0.999957473316
72	1.25	0.999957473316
72	1.5	0.999957473316
72	1.75	0.999957473316
72	2	0.999915927422
72	2.25	0.999915927422
72	2.5	0.99989494715
72	2.75	0.999884639068
72	3	0.999873389706
72	3.25	0.999873389706
72	3.5	0.999873389706
72	3.75	0.999841798085
72	4	0.999830852517
72	4.25	0.999821296922
72	4.5	0.999817886914
72	4.75	0.999817886914
72	5	0.999788504443
72	5.25	0.999778329561
72	5.5	0.999778329561
72	5.75	0.999755533622
72	6	0.999744888379
72	6.25	0.999733992401
72	6.5	0.999729122911
72	6.75	0.999729122911
72	7	0.999702329503
72	7.25	0.999691431215
72	7.5	0.999689637688
72	7.75	0.999689637688
72	8	0.999660040839
72	8.25	0.999657467824
72	8.5	0.999657467824
72	8.75	0.999631054585
72	9	0.999617742435
72	9.25	0.999607353249
72	9.5	0.999599387191
72	9.75	0.99958885704
72	10	0.999574664253
72	10.25	0.999574664253
72	10.5	0.999574664253
72	10.75	0.999574664253
72	11	0.999533118359
72	11.25	0.999533118359
72	11.5	0.999533118359
72	11.75	0.999533118359
72	12	0.999491572466
72	12.25	0.999491572466
72	12.5	0.999491572466
72	12.75	0.999491572466
72	13	0.999450026572
72	13.25	0.999450026572
72	13.5	0.999450026572
72	13.75	0.999450026572
72	14	0.999408480678
72	14.25	0.999408480678
72	14.5	0.999408480678
72	14.75	0.999408480678
77	0	1
77	0.25	1
77	0.5	1
77	0.75	0.999969015111
77	1	0.99995828075
77	1.25	0.99995828075
77	1.5	0.99995828075
77	1.75	0.99995828075
77	2	0.999916734856
77	2.25	0.999916734856
77	2.5	0.999898073347
77	2.75	0.999885997135
77	3	0.999874758493
77	3.25	0.999874758493
77	3.5	0.999874758493
77	3.75	0.999843209436
77	4	0.999832814359
77	4.25	0.99982208812
77	4.5	0.999819670184
77	4.75	0.999819670184
77	5	0.999790454577
77	5.25	0.999780542786
77	5.5	0.999780542786
77	5.75	0.999758366865
77	6	0.999747813285
77	6.25	0.999738295381
77	6.5	0.999732925539
77	6.75	0.999732925539
77	7	0.999706121413
77	7.25	0.999695302365
77	7.5	0.999693255389
77	7.75	0.999693255389
77	8	0.999663600837
77	8.25	0.99965980446
77	8.5	0.99965980446
77	8.75	0.999635595552
77	9	0.999621557345
77	9.25	0.999621557345
77	9.5	0.999600586009
77	9.75	0.999594756582
77	10	0.999579385221
77	10.25	0.999579385221
77	10.5	0.999579385221
77	10.75	0.999579385221
77	11	0.999537839327
77	11.25	0.999537839327
77	11.5	0.999537839327
77	11.75	0.999537839327
77	12	0.999496293434
77	12.25	0.999496293434
77	12.5	0.999496293434
77	12.75	0.999496293434
77	13	0.99945474754
77	13.25	0.99945474754
77	13.5	0.99945474754
77	13.75	0.99945474754
77	14	0.999413201646
77	14.25	0.999413201646
77	14.5	0.999413201646
77	14.75	0.999413201646
82	0	1
82	0.25	1
82	0.5	1
82	0.75	0.999967995813
82	1	0.999957487281
82	1.25	0.999957487281
82	1.5	0.999957487281
82	1.75	0.999957487281
82	2	0.999915941387
82	2.25	0.999915941387
82	2.5	0.999894972207
82	2.75	0.999884452447
82	3	0.999873213805
82	3.25	0.999873213805
82	3.5	0.999873213805
82	3.75	0.999842535888
82	4	0.999831019306
82	4.25	0.999820378974
82	4.5	0.999819976259
82	4.75	0.999819976259
82	5	0.999788801022
82	5.25	0.99977879324
82	5.5	0.99977879324
82	5.75	0.999756370048
82	6	0.99974570639
82	6.25	0.999734844138
82	6.5	0.999730087535
82	6.75	0.999730087535
82	7	0.999703294127
82	7.25	0.999692436836
82	7.5	0.999690616019
82	7.75	0.999690616019
82	8	0.999660949289
82	8.25	0.999657262892
82	8.5	0.999657262892
82	8.75	0.999632102705
82	9	0.999618790555
82	9.25	0.999608401369
82	9.5	0.999597006888
82	9.75	0.999589645494
82	10	0.999575452707
82	10.25	0.999575452707
82	10.5	0.999575452707
82	10.75	0.999575452707
82	11	0.999533906813
82	11.25	0.999533906813
82	11.5	0.999533906813
82	11.75	0.999533906813
82	12	0.99949236092
82	12.25	0.99949236092
82	12.5	0.99949236092
82	12.75	0.99949236092
82	13	0.999450815026
82	13.25	0.999450815026
82	13.5	0.999450815026
82	13.75	0.999450815026
82	14	0.999409269132
82	14.25	0.999409269132
82	14.5	0.999409269132
82	14.75	0.999409269132
87	0	1
87	0.25	1
87	0.5	1
87	0.75	0.999967827998
87	1	0.999957174338
87	1.25	0.999957174338
87	1.5	0.999957174338
87	1.75	0.999957174338
87	2	0.999915628444
87	2.25	0.999915628444
87	2.5	0.999895066949
87	2.75	0.999884684417
87	3	0.999873435055
87	3.25	0.999873435055
87	3.5	0.999873435055
87	3.75	0.999841826336
87	4	0.999830784498
87	4.25	0.999820637179
87	4.5	0.999817832246
87	4.75	0.999817832246
87	5	0.999788519616
87	5.25	0.999778315956
87	5.5	0.999778315956
87	5.75	0.999755477331
87	6	0.99974481683
87	6.25	0.999733882489
87	6.5	0.999729051416
87	6.75	0.999729051416
87	7	0.999702258008
87	7.25	0.999691236354
87	7.5	0.999689497533
87	7.75	0.999689497533
87	8	0.999659754488
87	8.25	0.999656136752
87	8.5	0.999656136752
87	8.75	0.999630615005
87	9	0.999617302855
87	9.25	0.999606926475
87	9.5	0.99959614972
87	9.75	0.999588236581
87	10	0.999574043794
87	10.25	0.999574043794
87	10.5	0.999574043794
87	10.75	0.999574043794
87	11	0.9995324979
87	11.25	0.9995324979
87	11.5	0.9995324979
87	11.75	0.9995324979
87	12	0.999490952006
87	12.25	0.999490952006
87	12.5	0.999490952006
87	12.75	0.999490952006
87	13	0.999449406113
87	13.25	0.999449406113
87	13.5	0.999449406113
87	13.75	0.999449406113
87	14	0.999407860219
87	14.25	0.999407860219
87	14.5	0.999407860219
87	14.75	0.999407860219
92	0	1
92	0.25	1
92	0.5	1
92	0.75	0.999968116702
92	1	0.99995760817
92	1.25	0.99995760817
92	1.5	0.99995760817
92	1.75	0.99995760817
92	2	0.999916062276
92	2.25	0.999916062276
92	2.5	0.999895126191
92	2.75	0.999884547572
92	3	0.999873308929
92	3.25	0.999873308929
92	3.5	0.999873308929
92	3.75	0.999842631012
92	4	0.999831088819
92	4.25	0.999820954375
92	4.5	0.999820954375
92	4.75	0.999820954375
92	5	0.999788992334
92	5.25	0.999779020858
92	5.5	0.999779020858
92	5.75	0.99975666124
92	6	0.999745997583
92	6.25	0.999735194465
92	6.5	0.999730366588
92	6.75	0.999730366588
92	7	0.999703573181
92	7.25	0.999692749493
92	7.5	0.999691365744
92	7.75	0.999691365744
92	8	0.999661332446
92	8.25	0.999657691824
92	8.5	0.999657691824
92	8.75	0.999632221845
92	9	0.999618909695
92	9.25	0.999608520509
92	9.5	0.999597355645
92	9.75	0.999590196136
92	10	0.999576003349
92	10.25	0.999576003349
92	10.5	0.999576003349
92	10.75	0.999576003349
92	11	0.999534457455
92	11.25	0.999534457455
92	11.5	0.999534457455
92	11.75	0.999534457455
92	12	0.999492911561
92	12.25	0.999492911561
92	12.5	0.999492911561
92	12.75	0.999492911561
92	13	0.999451365668
92	13.25	0.999451365668
92	13.5	0.999451365668
92	13.75	0.999451365668
92	14	0.999409819774
92	14.25	0.999409819774
92	14.5	0.999409819774
92	14.75	0.999409819774
97	0	1
97	0.25	1
97	0.5	1
97	0.75	0.99996851361
97	1	0.999958026126
97	1.25	0.999958026126
97	1.5	0.999958026126
97	1.75	0.999958026126
97	2	0.999916480232
97	2.25	0.999916480232
97	2.5	0.999896659849
97	2.75	0.999885653932
97	3	0.999874415289
97	3.25	0.999874415289
97	3.5	0.999874415289
97	3.75	0.999843245231
97	4	0.999832133485
97	4.25	0.999821244679
97	4.5	0.999818834371
97	4.75	0.999818834371
97	5	0.999789581106
97	5.25	0.999779404902
97	5.5	0.999779404902
97	5.75	0.999757011451
97	6	0.99974636085
97	6.25	0.999735573651
97	6.5	0.999730767823
97	6.75	0.999730767823
97	7	0.999703974415
97	7.25	0.999692934463
97	7.5	0.999690964776
97	7.75	0.999690964776
97	8	0.999661291903
97	8.25	0.999657611878
97	8.5	0.999657611878
97	8.75	0.999632141899
97	9	0.999618829749
97	9.25	0.999608448192
97	9.5	0.999597122188
97	9.75	0.999589828072
97	10	0.999575635285
97	10.25	0.999575635285
97	10.5	0.999575635285
97	10.75	0.999575635285
97	11	0.999534089391
97	11.25	0.999534089391
97	11.5	0.999534089391
97	11.75	0.999534089391
97	12	0.999492543497
97	12.25	0.999492543497
97	12.5	0.999492543497
97	12.75	0.999492543497
97	13	0.999450997604
97	13.25	0.999450997604
97	13.5	0.999450997604
97	13.75	0.999450997604
97	14	0.99940945171
97	14.25	0.99940945171
97	14.5	0.99940945171
97	14.75	0.99940945171
