version 2
run Eight-0-20100408-14:36:32-4498
attr configname Eight
attr datetime 20100408-14:36:32
attr experiment Eight
attr inifile omnetpp.ini
attr iterationvars ""
attr iterationvars2 $repetition=0
attr measurement ""
attr network sim
attr processid 4498
attr repetition 0
attr replication #0
attr resultdir results
attr runnumber 0
attr seedset 0

vector 2  sim.host[0].batteryStats  capacity(relative)  ETV
vector 8  sim.host[1].batteryStats  capacity(relative)  ETV
vector 14  sim.host[2].batteryStats  capacity(relative)  ETV
vector 20  sim.host[3].batteryStats  capacity(relative)  ETV
vector 26  sim.host[4].batteryStats  capacity(relative)  ETV
vector 32  sim.host[5].batteryStats  capacity(relative)  ETV
vector 38  sim.host[6].batteryStats  capacity(relative)  ETV
vector 44  sim.host[7].batteryStats  capacity(relative)  ETV
vector 50  sim.host[8].batteryStats  capacity(relative)  ETV
vector 56  sim.host[9].batteryStats  capacity(relative)  ETV
vector 62  sim.host[10].batteryStats  capacity(relative)  ETV
vector 68  sim.host[11].batteryStats  capacity(relative)  ETV
vector 74  sim.host[12].batteryStats  capacity(relative)  ETV
vector 80  sim.host[13].batteryStats  capacity(relative)  ETV
vector 86  sim.host[14].batteryStats  capacity(relative)  ETV
vector 92  sim.host[15].batteryStats  capacity(relative)  ETV
vector 98  sim.host[16].batteryStats  capacity(relative)  ETV
vector 104  sim.host[17].batteryStats  capacity(relative)  ETV
vector 110  sim.host[18].batteryStats  capacity(relative)  ETV
vector 116  sim.host[19].batteryStats  capacity(relative)  ETV
2	0	0	0.666666666667
2	61	0.25	0.666666666667
2	81	0.5	0.666666666667
2	17096	0.75	0.666488067588
2	17136	1	0.6664
2	17156	1.25	0.6664
2	17176	1.5	0.6664
2	17196	1.75	0.6664
2	18524	2	0.666133333333
2	18544	2.25	0.666133333333
2	30189	2.5	0.666016559108
2	39673	2.75	0.665937440491
2	52621	3	0.665866666667
2	57814	3.25	0.665822034211
2	67290	3.5	0.665761768368
2	71068	3.75	0.66571875075
2	84734	4	0.6656
2	85081	4.25	0.665599210609
2	93587	4.5	0.665466670448
2	97084	4.75	0.665458716315
2	104669	5	0.665333333333
2	119673	5.25	0.665286981885
2	119693	5.5	0.665286981885
2	140938	5.75	0.665133442672
2	143690	6	0.665066666667
2	143710	6.25	0.665066666667
2	143730	6.5	0.665066666667
2	143750	6.75	0.665066666667
2	151634	7	0.6648
2	153822	7.25	0.664794459785
2	157157	7.5	0.664666807492
2	165618	7.75	0.664646873626
2	175105	8	0.664533333333
2	175125	8.25	0.664533333333
2	175145	8.5	0.664533333333
2	185955	8.75	0.664355950915
2	185995	9	0.664266666667
2	186015	9.25	0.664266666667
2	186035	9.5	0.664266666667
2	204743	9.75	0.664092813079
2	204783	10	0.664
2	204803	10.25	0.664
2	204823	10.5	0.664
2	204843	10.75	0.664
2	204883	11	0.663733333333
2	204903	11.25	0.663733333333
2	204923	11.5	0.663733333333
2	204943	11.75	0.663733333333
2	204983	12	0.663466666667
2	205003	12.25	0.663466666667
2	205023	12.5	0.663466666667
2	205043	12.75	0.663466666667
2	205083	13	0.6632
2	205103	13.25	0.6632
2	205123	13.5	0.6632
2	205143	13.75	0.6632
2	205183	14	0.662933333333
2	205203	14.25	0.662933333333
2	205223	14.5	0.662933333333
2	205243	14.75	0.662933333333
2	205283	15	0.662666666667
2	205303	15.25	0.662666666667
2	205323	15.5	0.662666666667
2	205343	15.75	0.662666666667
2	205383	16	0.6624
2	205403	16.25	0.6624
2	205423	16.5	0.6624
2	205443	16.75	0.6624
2	205483	17	0.662133333333
2	205503	17.25	0.662133333333
2	205523	17.5	0.662133333333
2	205543	17.75	0.662133333333
2	205583	18	0.661866666667
2	205603	18.25	0.661866666667
2	205623	18.5	0.661866666667
2	205643	18.75	0.661866666667
2	205683	19	0.6616
2	205703	19.25	0.6616
2	205723	19.5	0.6616
2	205743	19.75	0.6616
2	205783	20	0.661333333333
2	205803	20.25	0.661333333333
2	205823	20.5	0.661333333333
2	205843	20.75	0.661333333333
2	205883	21	0.661066666667
2	205903	21.25	0.661066666667
2	205923	21.5	0.661066666667
2	205943	21.75	0.661066666667
2	205983	22	0.6608
2	206003	22.25	0.6608
2	206023	22.5	0.6608
2	206043	22.75	0.6608
2	206083	23	0.660533333333
2	206103	23.25	0.660533333333
2	206123	23.5	0.660533333333
2	206143	23.75	0.660533333333
2	206183	24	0.660266666667
2	206203	24.25	0.660266666667
2	206223	24.5	0.660266666667
2	206243	24.75	0.660266666667
2	206283	25	0.66
2	206303	25.25	0.66
2	206323	25.5	0.66
2	206343	25.75	0.66
2	206383	26	0.659733333333
2	206403	26.25	0.659733333333
2	206423	26.5	0.659733333333
2	206443	26.75	0.659733333333
2	206483	27	0.659466666667
2	206503	27.25	0.659466666667
2	206523	27.5	0.659466666667
2	206543	27.75	0.659466666667
2	206583	28	0.6592
2	206603	28.25	0.6592
2	206623	28.5	0.6592
2	206643	28.75	0.6592
2	206683	29	0.658933333333
2	206703	29.25	0.658933333333
2	206723	29.5	0.658933333333
2	206743	29.75	0.658933333333
2	206783	30	0.658666666667
2	206803	30.25	0.658666666667
2	206823	30.5	0.658666666667
2	206843	30.75	0.658666666667
2	206883	31	0.6584
2	206903	31.25	0.6584
2	206923	31.5	0.6584
2	206943	31.75	0.6584
2	206983	32	0.658133333333
2	207003	32.25	0.658133333333
2	207023	32.5	0.658133333333
2	207043	32.75	0.658133333333
2	207083	33	0.657866666667
2	207103	33.25	0.657866666667
2	207123	33.5	0.657866666667
2	207143	33.75	0.657866666667
2	207183	34	0.6576
2	207203	34.25	0.6576
2	207223	34.5	0.6576
2	207243	34.75	0.6576
2	207283	35	0.657333333333
2	207303	35.25	0.657333333333
2	207323	35.5	0.657333333333
2	207343	35.75	0.657333333333
2	207383	36	0.657066666667
2	207403	36.25	0.657066666667
2	207423	36.5	0.657066666667
2	207443	36.75	0.657066666667
2	207483	37	0.6568
2	207503	37.25	0.6568
2	207523	37.5	0.6568
2	207543	37.75	0.6568
2	207583	38	0.656533333333
2	207603	38.25	0.656533333333
2	207623	38.5	0.656533333333
2	207643	38.75	0.656533333333
2	207683	39	0.656266666667
2	207703	39.25	0.656266666667
2	207723	39.5	0.656266666667
2	207743	39.75	0.656266666667
2	207783	40	0.656
2	207803	40.25	0.656
2	207823	40.5	0.656
2	207843	40.75	0.656
2	207883	41	0.655733333333
2	207903	41.25	0.655733333333
2	207923	41.5	0.655733333333
2	207943	41.75	0.655733333333
2	207983	42	0.655466666667
2	208003	42.25	0.655466666667
2	208023	42.5	0.655466666667
2	208043	42.75	0.655466666667
2	208083	43	0.6552
2	208103	43.25	0.6552
2	208123	43.5	0.6552
2	208143	43.75	0.6552
2	208183	44	0.654933333333
2	208203	44.25	0.654933333333
2	208223	44.5	0.654933333333
2	208243	44.75	0.654933333333
2	208283	45	0.654666666667
2	208303	45.25	0.654666666667
2	208323	45.5	0.654666666667
2	208343	45.75	0.654666666667
2	208383	46	0.6544
2	208403	46.25	0.6544
2	208423	46.5	0.6544
2	208443	46.75	0.6544
2	208483	47	0.654133333333
2	208503	47.25	0.654133333333
2	208523	47.5	0.654133333333
2	208543	47.75	0.654133333333
2	208583	48	0.653866666667
2	208603	48.25	0.653866666667
2	208623	48.5	0.653866666667
2	208643	48.75	0.653866666667
2	208683	49	0.6536
2	208703	49.25	0.6536
2	208723	49.5	0.6536
2	208743	49.75	0.6536
2	208783	50	0.653333333333
2	208803	50.25	0.653333333333
2	208823	50.5	0.653333333333
2	208843	50.75	0.653333333333
2	208883	51	0.653066666667
2	208903	51.25	0.653066666667
2	208923	51.5	0.653066666667
2	208943	51.75	0.653066666667
2	208983	52	0.6528
2	209003	52.25	0.6528
2	209023	52.5	0.6528
2	209043	52.75	0.6528
2	209083	53	0.652533333333
2	209103	53.25	0.652533333333
2	209123	53.5	0.652533333333
2	209143	53.75	0.652533333333
2	209183	54	0.652266666667
2	209203	54.25	0.652266666667
2	209223	54.5	0.652266666667
2	209243	54.75	0.652266666667
2	209283	55	0.652
2	209303	55.25	0.652
2	209323	55.5	0.652
2	209343	55.75	0.652
2	209383	56	0.651733333333
2	209403	56.25	0.651733333333
2	209423	56.5	0.651733333333
2	209443	56.75	0.651733333333
2	209483	57	0.651466666667
2	209503	57.25	0.651466666667
2	209523	57.5	0.651466666667
2	209543	57.75	0.651466666667
2	209583	58	0.6512
2	209603	58.25	0.6512
2	209623	58.5	0.6512
2	209643	58.75	0.6512
2	209683	59	0.650933333333
2	209703	59.25	0.650933333333
2	209723	59.5	0.650933333333
2	209743	59.75	0.650933333333
2	209783	60	0.650666666667
2	209803	60.25	0.650666666667
2	209823	60.5	0.650666666667
2	209843	60.75	0.650666666667
2	209883	61	0.6504
2	209903	61.25	0.6504
2	209923	61.5	0.6504
2	209943	61.75	0.6504
2	209983	62	0.650133333333
2	210003	62.25	0.650133333333
2	210023	62.5	0.650133333333
2	210043	62.75	0.650133333333
2	210083	63	0.649866666667
2	210103	63.25	0.649866666667
2	210123	63.5	0.649866666667
2	210143	63.75	0.649866666667
2	210183	64	0.6496
2	210203	64.25	0.6496
2	210223	64.5	0.6496
2	210243	64.75	0.6496
2	210283	65	0.649333333333
2	210303	65.25	0.649333333333
2	210323	65.5	0.649333333333
2	210343	65.75	0.649333333333
2	210383	66	0.649066666667
2	210403	66.25	0.649066666667
2	210423	66.5	0.649066666667
2	210443	66.75	0.649066666667
2	210483	67	0.6488
2	210503	67.25	0.6488
2	210523	67.5	0.6488
2	210543	67.75	0.6488
2	210583	68	0.648533333333
2	210603	68.25	0.648533333333
2	210623	68.5	0.648533333333
2	210643	68.75	0.648533333333
2	210683	69	0.648266666667
2	210703	69.25	0.648266666667
2	210723	69.5	0.648266666667
2	210743	69.75	0.648266666667
2	210783	70	0.648
2	210803	70.25	0.648
2	210823	70.5	0.648
2	210843	70.75	0.648
2	210883	71	0.647733333333
2	210903	71.25	0.647733333333
2	210923	71.5	0.647733333333
2	210943	71.75	0.647733333333
2	210983	72	0.647466666667
2	211003	72.25	0.647466666667
2	211023	72.5	0.647466666667
2	211043	72.75	0.647466666667
2	211083	73	0.6472
2	211103	73.25	0.6472
2	211123	73.5	0.6472
2	211143	73.75	0.6472
2	211183	74	0.646933333333
2	211203	74.25	0.646933333333
2	211223	74.5	0.646933333333
2	211243	74.75	0.646933333333
2	211283	75	0.646666666667
2	211303	75.25	0.646666666667
2	211323	75.5	0.646666666667
2	211343	75.75	0.646666666667
2	211383	76	0.6464
2	211403	76.25	0.6464
2	211423	76.5	0.6464
2	211443	76.75	0.6464
2	211483	77	0.646133333333
2	211503	77.25	0.646133333333
2	211523	77.5	0.646133333333
2	211543	77.75	0.646133333333
2	211583	78	0.645866666667
2	211603	78.25	0.645866666667
2	211623	78.5	0.645866666667
2	211643	78.75	0.645866666667
2	211683	79	0.6456
2	211703	79.25	0.6456
2	211723	79.5	0.6456
2	211743	79.75	0.6456
2	211783	80	0.645333333333
2	211803	80.25	0.645333333333
2	211823	80.5	0.645333333333
2	211843	80.75	0.645333333333
2	211883	81	0.645066666667
2	211903	81.25	0.645066666667
2	211923	81.5	0.645066666667
2	211943	81.75	0.645066666667
2	211983	82	0.6448
2	212003	82.25	0.6448
2	212023	82.5	0.6448
2	212043	82.75	0.6448
2	212083	83	0.644533333333
2	212103	83.25	0.644533333333
2	212123	83.5	0.644533333333
2	212143	83.75	0.644533333333
2	212183	84	0.644266666667
2	212203	84.25	0.644266666667
2	212223	84.5	0.644266666667
2	212243	84.75	0.644266666667
2	212283	85	0.644
2	212303	85.25	0.644
2	212323	85.5	0.644
2	212343	85.75	0.644
2	212383	86	0.643733333333
2	212403	86.25	0.643733333333
2	212423	86.5	0.643733333333
2	212443	86.75	0.643733333333
2	212483	87	0.643466666667
2	212503	87.25	0.643466666667
2	212523	87.5	0.643466666667
2	212543	87.75	0.643466666667
2	212583	88	0.6432
2	212603	88.25	0.6432
2	212623	88.5	0.6432
2	212643	88.75	0.6432
2	212683	89	0.642933333333
2	212703	89.25	0.642933333333
2	212723	89.5	0.642933333333
2	212743	89.75	0.642933333333
2	212783	90	0.642666666667
2	212803	90.25	0.642666666667
2	212823	90.5	0.642666666667
2	212843	90.75	0.642666666667
2	212883	91	0.6424
2	212903	91.25	0.6424
2	212923	91.5	0.6424
2	212943	91.75	0.6424
2	212983	92	0.642133333333
2	213003	92.25	0.642133333333
2	213023	92.5	0.642133333333
2	213043	92.75	0.642133333333
2	213083	93	0.641866666667
2	213103	93.25	0.641866666667
2	213123	93.5	0.641866666667
2	213143	93.75	0.641866666667
2	213183	94	0.6416
2	213203	94.25	0.6416
2	213223	94.5	0.6416
2	213243	94.75	0.6416
2	213283	95	0.641333333333
2	213303	95.25	0.641333333333
2	213323	95.5	0.641333333333
2	213343	95.75	0.641333333333
2	213383	96	0.641066666667
2	213403	96.25	0.641066666667
2	213423	96.5	0.641066666667
2	213443	96.75	0.641066666667
2	213483	97	0.6408
2	213503	97.25	0.6408
2	213523	97.5	0.6408
2	213543	97.75	0.6408
2	213583	98	0.640533333333
2	213603	98.25	0.640533333333
2	213623	98.5	0.640533333333
2	213643	98.75	0.640533333333
2	213683	99	0.640266666667
2	213703	99.25	0.640266666667
2	213723	99.5	0.640266666667
2	213743	99.75	0.640266666667
2	213783	100	0.64
2	213803	100.25	0.64
2	213823	100.5	0.64
2	213843	100.75	0.64
2	213883	101	0.639733333333
2	213903	101.25	0.639733333333
2	213923	101.5	0.639733333333
2	213943	101.75	0.639733333333
2	213983	102	0.639466666667
2	214003	102.25	0.639466666667
2	214023	102.5	0.639466666667
2	214043	102.75	0.639466666667
2	214083	103	0.6392
2	214103	103.25	0.6392
2	214123	103.5	0.6392
2	214143	103.75	0.6392
2	214183	104	0.638933333333
2	214203	104.25	0.638933333333
2	214223	104.5	0.638933333333
2	214243	104.75	0.638933333333
2	214283	105	0.638666666667
2	214303	105.25	0.638666666667
2	214323	105.5	0.638666666667
2	214343	105.75	0.638666666667
2	214383	106	0.6384
2	214403	106.25	0.6384
2	214423	106.5	0.6384
2	214443	106.75	0.6384
2	214483	107	0.638133333333
2	214503	107.25	0.638133333333
2	214523	107.5	0.638133333333
2	214543	107.75	0.638133333333
2	214583	108	0.637866666667
2	214603	108.25	0.637866666667
2	214623	108.5	0.637866666667
2	214643	108.75	0.637866666667
2	214683	109	0.6376
2	214703	109.25	0.6376
2	214723	109.5	0.6376
2	214743	109.75	0.6376
2	214783	110	0.637333333333
2	214803	110.25	0.637333333333
2	214823	110.5	0.637333333333
2	214843	110.75	0.637333333333
2	214883	111	0.637066666667
2	214903	111.25	0.637066666667
2	214923	111.5	0.637066666667
2	214943	111.75	0.637066666667
2	214983	112	0.6368
2	215003	112.25	0.6368
2	215023	112.5	0.6368
2	215043	112.75	0.6368
2	215083	113	0.636533333333
2	215103	113.25	0.636533333333
2	215123	113.5	0.636533333333
2	215143	113.75	0.636533333333
2	215183	114	0.636266666667
2	215203	114.25	0.636266666667
2	215223	114.5	0.636266666667
2	215243	114.75	0.636266666667
2	215283	115	0.636
2	215303	115.25	0.636
2	215323	115.5	0.636
2	215343	115.75	0.636
2	215383	116	0.635733333333
2	215403	116.25	0.635733333333
2	215423	116.5	0.635733333333
2	215443	116.75	0.635733333333
2	215483	117	0.635466666667
2	215503	117.25	0.635466666667
2	215523	117.5	0.635466666667
2	215543	117.75	0.635466666667
2	215583	118	0.6352
2	215603	118.25	0.6352
2	215623	118.5	0.6352
2	215643	118.75	0.6352
2	215683	119	0.634933333333
2	215703	119.25	0.634933333333
2	215723	119.5	0.634933333333
2	215743	119.75	0.634933333333
2	215783	120	0.634666666667
2	215803	120.25	0.634666666667
2	215823	120.5	0.634666666667
2	215843	120.75	0.634666666667
2	215883	121	0.6344
2	215903	121.25	0.6344
2	215923	121.5	0.6344
2	215943	121.75	0.6344
2	215983	122	0.634133333333
2	216003	122.25	0.634133333333
2	216023	122.5	0.634133333333
2	216043	122.75	0.634133333333
2	216083	123	0.633866666667
2	216103	123.25	0.633866666667
2	216123	123.5	0.633866666667
2	216143	123.75	0.633866666667
2	216183	124	0.6336
2	216203	124.25	0.6336
2	216223	124.5	0.6336
2	216243	124.75	0.6336
2	216283	125	0.633333333333
2	216303	125.25	0.633333333333
2	216323	125.5	0.633333333333
2	216343	125.75	0.633333333333
2	216383	126	0.633066666667
2	216403	126.25	0.633066666667
2	216423	126.5	0.633066666667
2	216443	126.75	0.633066666667
2	216483	127	0.6328
2	216503	127.25	0.6328
2	216523	127.5	0.6328
2	216543	127.75	0.6328
2	216583	128	0.632533333333
2	216603	128.25	0.632533333333
2	216623	128.5	0.632533333333
2	216643	128.75	0.632533333333
2	216683	129	0.632266666667
2	216703	129.25	0.632266666667
2	216723	129.5	0.632266666667
2	216743	129.75	0.632266666667
2	216783	130	0.632
2	216803	130.25	0.632
2	216823	130.5	0.632
2	216843	130.75	0.632
2	216883	131	0.631733333333
2	216903	131.25	0.631733333333
2	216923	131.5	0.631733333333
2	216943	131.75	0.631733333333
2	216983	132	0.631466666667
2	217003	132.25	0.631466666667
2	217023	132.5	0.631466666667
2	217043	132.75	0.631466666667
2	217083	133	0.6312
2	217103	133.25	0.6312
2	217123	133.5	0.6312
2	217143	133.75	0.6312
2	217183	134	0.630933333333
2	217203	134.25	0.630933333333
2	217223	134.5	0.630933333333
2	217243	134.75	0.630933333333
2	217283	135	0.630666666667
2	217303	135.25	0.630666666667
2	217323	135.5	0.630666666667
2	217343	135.75	0.630666666667
2	217383	136	0.6304
2	217403	136.25	0.6304
2	217423	136.5	0.6304
2	217443	136.75	0.6304
2	217483	137	0.630133333333
2	217503	137.25	0.630133333333
2	217523	137.5	0.630133333333
2	217543	137.75	0.630133333333
2	217583	138	0.629866666667
2	217603	138.25	0.629866666667
2	217623	138.5	0.629866666667
2	217643	138.75	0.629866666667
2	217683	139	0.6296
2	217703	139.25	0.6296
2	217723	139.5	0.6296
2	217743	139.75	0.6296
2	217783	140	0.629333333333
2	217803	140.25	0.629333333333
2	217823	140.5	0.629333333333
2	217843	140.75	0.629333333333
2	217883	141	0.629066666667
2	217903	141.25	0.629066666667
2	217923	141.5	0.629066666667
2	217943	141.75	0.629066666667
2	217983	142	0.6288
2	218003	142.25	0.6288
2	218023	142.5	0.6288
2	218043	142.75	0.6288
2	218083	143	0.628533333333
2	218103	143.25	0.628533333333
2	218123	143.5	0.628533333333
2	218143	143.75	0.628533333333
2	218183	144	0.628266666667
2	218203	144.25	0.628266666667
2	218223	144.5	0.628266666667
2	218243	144.75	0.628266666667
2	218283	145	0.628
2	218303	145.25	0.628
2	218323	145.5	0.628
2	218343	145.75	0.628
2	218383	146	0.627733333333
2	218403	146.25	0.627733333333
2	218423	146.5	0.627733333333
2	218443	146.75	0.627733333333
2	218483	147	0.627466666667
2	218503	147.25	0.627466666667
2	218523	147.5	0.627466666667
2	218543	147.75	0.627466666667
2	218583	148	0.6272
2	218603	148.25	0.6272
2	218623	148.5	0.6272
2	218643	148.75	0.6272
2	218683	149	0.626933333333
2	218703	149.25	0.626933333333
2	218723	149.5	0.626933333333
2	218743	149.75	0.626933333333
2	218783	150	0.626666666667
2	218803	150.25	0.626666666667
2	218823	150.5	0.626666666667
2	218843	150.75	0.626666666667
2	218883	151	0.6264
2	218903	151.25	0.6264
2	218923	151.5	0.6264
2	218943	151.75	0.6264
2	218983	152	0.626133333333
2	219003	152.25	0.626133333333
2	219023	152.5	0.626133333333
2	219043	152.75	0.626133333333
2	219083	153	0.625866666667
2	219103	153.25	0.625866666667
2	219123	153.5	0.625866666667
2	219143	153.75	0.625866666667
2	219183	154	0.6256
2	219203	154.25	0.6256
2	219223	154.5	0.6256
2	219243	154.75	0.6256
2	219283	155	0.625333333333
2	219303	155.25	0.625333333333
2	219323	155.5	0.625333333333
2	219343	155.75	0.625333333333
2	219383	156	0.625066666667
2	219403	156.25	0.625066666667
2	219423	156.5	0.625066666667
2	219443	156.75	0.625066666667
2	219483	157	0.6248
2	219503	157.25	0.6248
2	219523	157.5	0.6248
2	219543	157.75	0.6248
2	219583	158	0.624533333333
2	219603	158.25	0.624533333333
2	219623	158.5	0.624533333333
2	219643	158.75	0.624533333333
2	219683	159	0.624266666667
2	219703	159.25	0.624266666667
2	219723	159.5	0.624266666667
2	219743	159.75	0.624266666667
2	219783	160	0.624
2	219803	160.25	0.624
2	219823	160.5	0.624
2	219843	160.75	0.624
2	219883	161	0.623733333333
2	219903	161.25	0.623733333333
2	219923	161.5	0.623733333333
2	219943	161.75	0.623733333333
2	219983	162	0.623466666667
2	220003	162.25	0.623466666667
2	220023	162.5	0.623466666667
2	220043	162.75	0.623466666667
2	220083	163	0.6232
2	220103	163.25	0.6232
2	220123	163.5	0.6232
2	220143	163.75	0.6232
2	220183	164	0.622933333333
2	220203	164.25	0.622933333333
2	220223	164.5	0.622933333333
2	220243	164.75	0.622933333333
2	220283	165	0.622666666667
2	220303	165.25	0.622666666667
2	220323	165.5	0.622666666667
2	220343	165.75	0.622666666667
2	220383	166	0.6224
2	220403	166.25	0.6224
2	220423	166.5	0.6224
2	220443	166.75	0.6224
2	220483	167	0.622133333333
2	220503	167.25	0.622133333333
2	220523	167.5	0.622133333333
2	220543	167.75	0.622133333333
2	220583	168	0.621866666667
2	220603	168.25	0.621866666667
2	220623	168.5	0.621866666667
2	220643	168.75	0.621866666667
2	220683	169	0.6216
2	220703	169.25	0.6216
2	220723	169.5	0.6216
2	220743	169.75	0.6216
2	220783	170	0.621333333333
2	220803	170.25	0.621333333333
2	220823	170.5	0.621333333333
2	220843	170.75	0.621333333333
2	220883	171	0.621066666667
2	220903	171.25	0.621066666667
2	220923	171.5	0.621066666667
2	220943	171.75	0.621066666667
2	220983	172	0.6208
2	221003	172.25	0.6208
2	221023	172.5	0.6208
2	221043	172.75	0.6208
2	221083	173	0.620533333333
2	221103	173.25	0.620533333333
2	221123	173.5	0.620533333333
2	221143	173.75	0.620533333333
2	221183	174	0.620266666667
2	221203	174.25	0.620266666667
2	221223	174.5	0.620266666667
2	221243	174.75	0.620266666667
2	221283	175	0.62
2	221303	175.25	0.62
2	221323	175.5	0.62
2	221343	175.75	0.62
2	221383	176	0.619733333333
2	221403	176.25	0.619733333333
2	221423	176.5	0.619733333333
2	221443	176.75	0.619733333333
2	221483	177	0.619466666667
2	221503	177.25	0.619466666667
2	221523	177.5	0.619466666667
2	221543	177.75	0.619466666667
2	221583	178	0.6192
2	221603	178.25	0.6192
2	221623	178.5	0.6192
2	221643	178.75	0.6192
2	221683	179	0.618933333333
2	221703	179.25	0.618933333333
2	221723	179.5	0.618933333333
2	221743	179.75	0.618933333333
2	221783	180	0.618666666667
2	221803	180.25	0.618666666667
2	221823	180.5	0.618666666667
2	221843	180.75	0.618666666667
2	221883	181	0.6184
2	221903	181.25	0.6184
2	221923	181.5	0.6184
2	221943	181.75	0.6184
2	221983	182	0.618133333333
2	222003	182.25	0.618133333333
2	222023	182.5	0.618133333333
2	222043	182.75	0.618133333333
2	222083	183	0.617866666667
2	222103	183.25	0.617866666667
2	222123	183.5	0.617866666667
2	222143	183.75	0.617866666667
2	222183	184	0.6176
2	222203	184.25	0.6176
2	222223	184.5	0.6176
2	222243	184.75	0.6176
2	222283	185	0.617333333333
2	222303	185.25	0.617333333333
2	222323	185.5	0.617333333333
2	222343	185.75	0.617333333333
2	222383	186	0.617066666667
2	222403	186.25	0.617066666667
2	222423	186.5	0.617066666667
2	222443	186.75	0.617066666667
2	222483	187	0.6168
2	222503	187.25	0.6168
2	222523	187.5	0.6168
2	222543	187.75	0.6168
2	222583	188	0.616533333333
2	222603	188.25	0.616533333333
2	222623	188.5	0.616533333333
2	222643	188.75	0.616533333333
2	222683	189	0.616266666667
2	222703	189.25	0.616266666667
2	222723	189.5	0.616266666667
2	222743	189.75	0.616266666667
2	222783	190	0.616
2	222803	190.25	0.616
2	222823	190.5	0.616
2	222843	190.75	0.616
2	222883	191	0.615733333333
2	222903	191.25	0.615733333333
2	222923	191.5	0.615733333333
2	222943	191.75	0.615733333333
2	222983	192	0.615466666667
2	223003	192.25	0.615466666667
2	223023	192.5	0.615466666667
2	223043	192.75	0.615466666667
2	223083	193	0.6152
2	223103	193.25	0.6152
2	223123	193.5	0.6152
2	223143	193.75	0.6152
2	223183	194	0.614933333333
2	223203	194.25	0.614933333333
2	223223	194.5	0.614933333333
2	223243	194.75	0.614933333333
2	223283	195	0.614666666667
2	223303	195.25	0.614666666667
2	223323	195.5	0.614666666667
2	223343	195.75	0.614666666667
2	223383	196	0.6144
2	223403	196.25	0.6144
2	223423	196.5	0.6144
2	223443	196.75	0.6144
2	223483	197	0.614133333333
2	223503	197.25	0.614133333333
2	223523	197.5	0.614133333333
2	223543	197.75	0.614133333333
2	223583	198	0.613866666667
2	223603	198.25	0.613866666667
2	223623	198.5	0.613866666667
2	223643	198.75	0.613866666667
2	223683	199	0.6136
2	223703	199.25	0.6136
2	223723	199.5	0.6136
2	223743	199.75	0.6136
2	223783	200	0.613333333333
2	223803	200.25	0.613333333333
2	223823	200.5	0.613333333333
2	223843	200.75	0.613333333333
2	223883	201	0.613066666667
2	223903	201.25	0.613066666667
2	223923	201.5	0.613066666667
2	223943	201.75	0.613066666667
2	223983	202	0.6128
2	224003	202.25	0.6128
2	224023	202.5	0.6128
2	224043	202.75	0.6128
2	224083	203	0.612533333333
2	224103	203.25	0.612533333333
2	224123	203.5	0.612533333333
2	224143	203.75	0.612533333333
2	224183	204	0.612266666667
2	224203	204.25	0.612266666667
2	224223	204.5	0.612266666667
2	224243	204.75	0.612266666667
2	224283	205	0.612
2	224303	205.25	0.612
2	224323	205.5	0.612
2	224343	205.75	0.612
2	224383	206	0.611733333333
2	224403	206.25	0.611733333333
2	224423	206.5	0.611733333333
2	224443	206.75	0.611733333333
2	224483	207	0.611466666667
2	224503	207.25	0.611466666667
2	224523	207.5	0.611466666667
2	224543	207.75	0.611466666667
2	224583	208	0.6112
2	224603	208.25	0.6112
2	224623	208.5	0.6112
2	224643	208.75	0.6112
2	224683	209	0.610933333333
2	224703	209.25	0.610933333333
2	224723	209.5	0.610933333333
2	224743	209.75	0.610933333333
2	224783	210	0.610666666667
2	224803	210.25	0.610666666667
2	224823	210.5	0.610666666667
2	224843	210.75	0.610666666667
2	224883	211	0.6104
2	224903	211.25	0.6104
2	224923	211.5	0.6104
2	224943	211.75	0.6104
2	224983	212	0.610133333333
2	225003	212.25	0.610133333333
2	225023	212.5	0.610133333333
2	225043	212.75	0.610133333333
2	225083	213	0.609866666667
2	225103	213.25	0.609866666667
2	225123	213.5	0.609866666667
2	225143	213.75	0.609866666667
2	225183	214	0.6096
2	225203	214.25	0.6096
2	225223	214.5	0.6096
2	225243	214.75	0.6096
2	225283	215	0.609333333333
2	225303	215.25	0.609333333333
2	225323	215.5	0.609333333333
2	225343	215.75	0.609333333333
2	225383	216	0.609066666667
2	225403	216.25	0.609066666667
2	225423	216.5	0.609066666667
2	225443	216.75	0.609066666667
2	225483	217	0.6088
2	225503	217.25	0.6088
2	225523	217.5	0.6088
2	225543	217.75	0.6088
2	225583	218	0.608533333333
2	225603	218.25	0.608533333333
2	225623	218.5	0.608533333333
2	225643	218.75	0.608533333333
2	225683	219	0.608266666667
2	225703	219.25	0.608266666667
2	225723	219.5	0.608266666667
2	225743	219.75	0.608266666667
2	225783	220	0.608
2	225803	220.25	0.608
2	225823	220.5	0.608
2	225843	220.75	0.608
2	225883	221	0.607733333333
2	225903	221.25	0.607733333333
2	225923	221.5	0.607733333333
2	225943	221.75	0.607733333333
2	225983	222	0.607466666667
2	226003	222.25	0.607466666667
2	226023	222.5	0.607466666667
2	226043	222.75	0.607466666667
2	226083	223	0.6072
2	226103	223.25	0.6072
2	226123	223.5	0.6072
2	226143	223.75	0.6072
2	226183	224	0.606933333333
2	226203	224.25	0.606933333333
2	226223	224.5	0.606933333333
2	226243	224.75	0.606933333333
2	226283	225	0.606666666667
2	226303	225.25	0.606666666667
2	226323	225.5	0.606666666667
2	226343	225.75	0.606666666667
2	226383	226	0.6064
2	226403	226.25	0.6064
2	226423	226.5	0.6064
2	226443	226.75	0.6064
2	226483	227	0.606133333333
2	226503	227.25	0.606133333333
2	226523	227.5	0.606133333333
2	226543	227.75	0.606133333333
2	226583	228	0.605866666667
2	226603	228.25	0.605866666667
2	226623	228.5	0.605866666667
2	226643	228.75	0.605866666667
2	226683	229	0.6056
2	226703	229.25	0.6056
2	226723	229.5	0.6056
2	226743	229.75	0.6056
2	226783	230	0.605333333333
2	226803	230.25	0.605333333333
2	226823	230.5	0.605333333333
2	226843	230.75	0.605333333333
2	226883	231	0.605066666667
2	226903	231.25	0.605066666667
2	226923	231.5	0.605066666667
2	226943	231.75	0.605066666667
2	226983	232	0.6048
2	227003	232.25	0.6048
2	227023	232.5	0.6048
2	227043	232.75	0.6048
2	227083	233	0.604533333333
2	227103	233.25	0.604533333333
2	227123	233.5	0.604533333333
2	227143	233.75	0.604533333333
2	227183	234	0.604266666667
2	227203	234.25	0.604266666667
2	227223	234.5	0.604266666667
2	227243	234.75	0.604266666667
2	227283	235	0.604
2	227303	235.25	0.604
2	227323	235.5	0.604
2	227343	235.75	0.604
2	227383	236	0.603733333333
2	227403	236.25	0.603733333333
2	227423	236.5	0.603733333333
2	227443	236.75	0.603733333333
2	227483	237	0.603466666667
2	227503	237.25	0.603466666667
2	227523	237.5	0.603466666667
2	227543	237.75	0.603466666667
2	227583	238	0.6032
2	227603	238.25	0.6032
2	227623	238.5	0.6032
2	227643	238.75	0.6032
2	227683	239	0.602933333333
2	227703	239.25	0.602933333333
2	227723	239.5	0.602933333333
2	227743	239.75	0.602933333333
2	227783	240	0.602666666667
2	227803	240.25	0.602666666667
2	227823	240.5	0.602666666667
2	227843	240.75	0.602666666667
2	227883	241	0.6024
2	227903	241.25	0.6024
2	227923	241.5	0.6024
2	227943	241.75	0.6024
2	227983	242	0.602133333333
2	228003	242.25	0.602133333333
2	228023	242.5	0.602133333333
2	228043	242.75	0.602133333333
2	228083	243	0.601866666667
2	228103	243.25	0.601866666667
2	228123	243.5	0.601866666667
2	228143	243.75	0.601866666667
2	228183	244	0.6016
2	228203	244.25	0.6016
2	228223	244.5	0.6016
2	228243	244.75	0.6016
2	228283	245	0.601333333333
2	228303	245.25	0.601333333333
2	228323	245.5	0.601333333333
2	228343	245.75	0.601333333333
2	228383	246	0.601066666667
2	228403	246.25	0.601066666667
2	228423	246.5	0.601066666667
2	228443	246.75	0.601066666667
2	228483	247	0.6008
2	228503	247.25	0.6008
2	228523	247.5	0.6008
2	228543	247.75	0.6008
2	228583	248	0.600533333333
2	228603	248.25	0.600533333333
2	228623	248.5	0.600533333333
2	228643	248.75	0.600533333333
2	228683	249	0.600266666667
2	228703	249.25	0.600266666667
2	228723	249.5	0.600266666667
2	228743	249.75	0.600266666667
2	228783	250	0.6
2	228803	250.25	0.6
2	228823	250.5	0.6
2	228843	250.75	0.6
2	228883	251	0.599733333333
2	228903	251.25	0.599733333333
2	228923	251.5	0.599733333333
2	228943	251.75	0.599733333333
2	228983	252	0.599466666667
2	229003	252.25	0.599466666667
2	229023	252.5	0.599466666667
2	229043	252.75	0.599466666667
2	229083	253	0.5992
2	229103	253.25	0.5992
2	229123	253.5	0.5992
2	229143	253.75	0.5992
2	229183	254	0.598933333333
2	229203	254.25	0.598933333333
2	229223	254.5	0.598933333333
2	229243	254.75	0.598933333333
2	229283	255	0.598666666667
2	229303	255.25	0.598666666667
2	229323	255.5	0.598666666667
2	229343	255.75	0.598666666667
2	229383	256	0.5984
2	229403	256.25	0.5984
2	229423	256.5	0.5984
2	229443	256.75	0.5984
2	229483	257	0.598133333333
2	229503	257.25	0.598133333333
2	229523	257.5	0.598133333333
2	229543	257.75	0.598133333333
2	229583	258	0.597866666667
2	229603	258.25	0.597866666667
2	229623	258.5	0.597866666667
2	229643	258.75	0.597866666667
2	229683	259	0.5976
2	229703	259.25	0.5976
2	229723	259.5	0.5976
2	229743	259.75	0.5976
2	229783	260	0.597333333333
2	229803	260.25	0.597333333333
2	229823	260.5	0.597333333333
2	229843	260.75	0.597333333333
2	229883	261	0.597066666667
2	229903	261.25	0.597066666667
2	229923	261.5	0.597066666667
2	229943	261.75	0.597066666667
2	229983	262	0.5968
2	230003	262.25	0.5968
2	230023	262.5	0.5968
2	230043	262.75	0.5968
2	230083	263	0.596533333333
2	230103	263.25	0.596533333333
2	230123	263.5	0.596533333333
2	230143	263.75	0.596533333333
2	230183	264	0.596266666667
2	230203	264.25	0.596266666667