version 2
run Nine-0-20100408-14:37:05-4501
attr configname Nine
attr datetime 20100408-14:37:05
attr experiment Nine
attr inifile omnetpp.ini
attr iterationvars ""
attr iterationvars2 $repetition=0
attr measurement ""
attr network sim
attr processid 4501
attr repetition 0
attr replication #0
attr resultdir results
attr runnumber 0
attr seedset 0

vector 2  sim.host[0].batteryStats  capacity(relative)  ETV
vector 8  sim.host[1].batteryStats  capacity(relative)  ETV
vector 14  sim.host[2].batteryStats  capacity(relative)  ETV
vector 20  sim.host[3].batteryStats  capacity(relative)  ETV
vector 26  sim.host[4].batteryStats  capacity(relative)  ETV
vector 32  sim.host[5].batteryStats  capacity(relative)  ETV
vector 38  sim.host[6].batteryStats  capacity(relative)  ETV
vector 44  sim.host[7].batteryStats  capacity(relative)  ETV
vector 50  sim.host[8].batteryStats  capacity(relative)  ETV
vector 56  sim.host[9].batteryStats  capacity(relative)  ETV
vector 62  sim.host[10].batteryStats  capacity(relative)  ETV
vector 68  sim.host[11].batteryStats  capacity(relative)  ETV
vector 74  sim.host[12].batteryStats  capacity(relative)  ETV
vector 80  sim.host[13].batteryStats  capacity(relative)  ETV
vector 86  sim.host[14].batteryStats  capacity(relative)  ETV
vector 92  sim.host[15].batteryStats  capacity(relative)  ETV
vector 98  sim.host[16].batteryStats  capacity(relative)  ETV
vector 104  sim.host[17].batteryStats  capacity(relative)  ETV
vector 110  sim.host[18].batteryStats  capacity(relative)  ETV
vector 116  sim.host[19].batteryStats  capacity(relative)  ETV
2	0	0	1
2	61	0.25	1
2	81	0.5	1
2	25035	0.75	0.999968732124
2	25075	1	0.999957509399
2	25095	1.25	0.999957509399
2	25115	1.5	0.999957509399
2	25135	1.75	0.999957509399
2	27404	2	0.999915868278
2	27424	2.25	0.999915868278
2	42513	2.5	0.999895794607
2	53656	2.75	0.99988379244
2	75444	3	0.999872886342
2	85136	3.25	0.999862654332
2	98655	3.5	0.999853896612
2	104042	3.75	0.999847948431
2	117814	4	0.999829737051
2	124261	4.25	0.999827274651
2	132752	4.5	0.999808432033
2	141851	4.75	0.999804715635
2	149971	5	0.999786821944
2	172042	5.25	0.999776708117
2	172062	5.5	0.999776708117
2	199081	5.75	0.999753877568
2	206209	6	0.999743147011
2	206229	6.25	0.999743147011
2	206249	6.5	0.999743147011
2	206269	6.75	0.999743147011
2	213799	7	0.999701231528
2	219897	7.25	0.999698498366
2	223342	7.5	0.999679981126
2	236978	7.75	0.999674340632
2	250545	8	0.999658242386
2	250565	8.25	0.999658242386
2	250585	8.5	0.999658242386
2	266226	8.75	0.999628624097
2	266266	9	0.999616397393
2	266286	9.25	0.999616397393
2	266306	9.5	0.999616397393
2	292925	9.75	0.999586178444
2	292965	10	0.999573889045
2	292985	10.25	0.999573889045
2	293005	10.5	0.999573889045
2	293025	10.75	0.999573889045
2	293065	11	0.999532343152
2	293085	11.25	0.999532343152
2	293105	11.5	0.999532343152
2	293125	11.75	0.999532343152
2	293165	12	0.999490797258
2	293185	12.25	0.999490797258
2	293205	12.5	0.999490797258
2	293225	12.75	0.999490797258
2	293265	13	0.999449251364
2	293285	13.25	0.999449251364
2	293305	13.5	0.999449251364
2	293325	13.75	0.999449251364
2	293365	14	0.99940770547
2	293385	14.25	0.99940770547
2	293405	14.5	0.99940770547
2	293425	14.75	0.99940770547
8	0	0	1
8	62	0.25	1
8	82	0.5	1
8	25036	0.75	0.999968889102
8	25076	1	0.999957666377
8	25096	1.25	0.999957666377
8	25116	1.5	0.999957666377
8	25136	1.75	0.999957666377
8	27405	2	0.999915958895
8	27425	2.25	0.999915958895
8	42514	2.5	0.999895885223
8	53657	2.75	0.999887284952
8	75445	3	0.999872867065
8	85137	3.25	0.999862686823
8	98656	3.5	0.999862686823
8	104043	3.75	0.999848327273
8	117815	4	0.999830516328
8	124262	4.25	0.999828242169
8	132753	4.5	0.999809849776
8	141852	4.75	0.999806239961
8	149972	5	0.999788644006
8	172043	5.25	0.999779143331
8	172063	5.5	0.999779143331
8	199082	5.75	0.999756813165
8	206210	6	0.999746074705
8	206230	6.25	0.999746074705
8	206250	6.5	0.999746074705
8	206270	6.75	0.999746074705
8	213800	7	0.999704141604
8	219898	7.25	0.999701402992
8	223343	7.5	0.999682898558
8	236979	7.75	0.999677258063
8	250546	8	0.999661464978
8	250566	8.25	0.999661464978
8	250586	8.5	0.999661464978
8	266227	8.75	0.999661464978
8	266267	9	0.999619919084
8	266287	9.25	0.999619919084
8	266307	9.5	0.999619919084
8	292926	9.75	0.999589947194
8	292966	10	0.999577657795
8	292986	10.25	0.999577657795
8	293006	10.5	0.999577657795
8	293026	10.75	0.999577657795
8	293066	11	0.999536111901
8	293086	11.25	0.999536111901
8	293106	11.5	0.999536111901
8	293126	11.75	0.999536111901
8	293166	12	0.999494566008
8	293186	12.25	0.999494566008
8	293206	12.5	0.999494566008
8	293226	12.75	0.999494566008
8	293266	13	0.999453020114
8	293286	13.25	0.999453020114
8	293306	13.5	0.999453020114
8	293326	13.75	0.999453020114
8	293366	14	0.99941147422
8	293386	14.25	0.99941147422
8	293406	14.5	0.99941147422
8	293426	14.75	0.99941147422
14	0	0	1
14	63	0.25	1
14	83	0.5	1
14	25037	0.75	0.999968764132
14	25077	1	0.999957541407
14	25097	1.25	0.999957541407
14	25117	1.5	0.999957541407
14	25137	1.75	0.999957541407
14	27406	2	0.999915930195
14	27426	2.25	0.999915930195
14	42515	2.5	0.999895875505
14	53658	2.75	0.999887275234
14	75446	3	0.999872841981
14	85138	3.25	0.999862887067
14	98657	3.5	0.999862887067
14	104044	3.75	0.999848527517
14	117816	4	0.999830716572
14	124263	4.25	0.999828442413
14	132754	4.5	0.999810050019
14	141853	4.75	0.999806440205
14	149973	5	0.999788639901
14	172044	5.25	0.999778981039
14	172064	5.5	0.999778981039
14	199083	5.75	0.99975679296
14	206211	6	0.9997460545
14	206231	6.25	0.9997460545
14	206251	6.5	0.9997460545
14	206271	6.75	0.9997460545
14	213801	7	0.999704092699
14	219899	7.25	0.999701354087
14	223344	7.5	0.999682849654
14	236980	7.75	0.999677209159
14	250547	8	0.999661416073
14	250567	8.25	0.999661416073
14	250587	8.5	0.999661416073
14	266228	8.75	0.999633006078
14	266268	9	0.999619786261
14	266288	9.25	0.999619786261
14	266308	9.5	0.999619786261
14	292927	9.75	0.999589725638
14	292967	10	0.99957743624
14	292987	10.25	0.99957743624
14	293007	10.5	0.99957743624
14	293027	10.75	0.99957743624
14	293067	11	0.999535890346
14	293087	11.25	0.999535890346
14	293107	11.5	0.999535890346
14	293127	11.75	0.999535890346
14	293167	12	0.999494344452
14	293187	12.25	0.999494344452
14	293207	12.5	0.999494344452
14	293227	12.75	0.999494344452
14	293267	13	0.999452798558
14	293287	13.25	0.999452798558
14	293307	13.5	0.999452798558
14	293327	13.75	0.999452798558
14	293367	14	0.999411252665
14	293387	14.25	0.999411252665
14	293407	14.5	0.999411252665
14	293427	14.75	0.999411252665
20	0	0	1
20	64	0.25	1
20	84	0.5	1
20	25038	0.75	0.999968925025
20	25078	1	0.9999577023
20	25098	1.25	0.9999577023
20	25118	1.5	0.9999577023
20	25138	1.75	0.9999577023
20	27407	2	0.999916156406
20	27427	2.25	0.999916156406
20	42516	2.5	0.999896833616
20	53659	2.75	0.99988422347
20	75447	3	0.999873045693
20	85139	3.25	0.999863268338
20	98658	3.5	0.999854106372
20	104045	3.75	0.999848363003
20	117817	4	0.999829952991
20	124264	4.25	0.999827424792
20	132755	4.5	0.99980850434
20	141854	4.75	0.999804688674
20	149974	5	0.999787216255
20	172045	5.25	0.999776954166
20	172065	5.5	0.999776954166
20	199084	5.75	0.999754398003
20	206212	6	0.999743804495
20	206232	6.25	0.999743804495
20	206252	6.5	0.999743804495
20	206272	6.75	0.999743804495
20	213802	7	0.999702097372
20	219900	7.25	0.999699725351
20	223345	7.5	0.999681166067
20	236981	7.75	0.999676088921
20	250548	8	0.999659432379
20	250568	8.25	0.999659432379
20	250588	8.5	0.999659432379
20	266229	8.75	0.999629377867
20	266269	9	0.999617161882
20	266289	9.25	0.999617161882
20	266309	9.5	0.999617161882
20	292928	9.75	0.999587147673
20	292968	10	0.999574858274
20	292988	10.25	0.999574858274
20	293008	10.5	0.999574858274
20	293028	10.75	0.999574858274
20	293068	11	0.999533312381
20	293088	11.25	0.999533312381
20	293108	11.5	0.999533312381
20	293128	11.75	0.999533312381
20	293168	12	0.999491766487
20	293188	12.25	0.999491766487
20	293208	12.5	0.999491766487
20	293228	12.75	0.999491766487
20	293268	13	0.999450220593
20	293288	13.25	0.999450220593
20	293308	13.5	0.999450220593
20	293328	13.75	0.999450220593
20	293368	14	0.999408674699
20	293388	14.25	0.999408674699
20	293408	14.5	0.999408674699
20	293428	14.75	0.999408674699
26	0	0	1
26	65	0.25	1
26	85	0.5	1
26	25039	0.75	0.999968925025
26	25079	1	0.9999577023
26	25099	1.25	0.9999577023
26	25119	1.5	0.9999577023
26	25139	1.75	0.9999577023
26	27408	2	0.999916156406
26	27428	2.25	0.999916156406
26	42517	2.5	0.999896833616
26	53660	2.75	0.999884210664
26	75448	3	0.999873005167
26	85140	3.25	0.999863227813
26	98659	3.5	0.999854065847
26	104046	3.75	0.999848322477
26	117818	4	0.999829912465
26	124265	4.25	0.999827384266
26	132756	4.5	0.999808678698
26	141855	4.75	0.999805070558
26	149975	5	0.999787598139
26	172046	5.25	0.999777197323
26	172066	5.5	0.999777197323
26	199085	5.75	0.999754336042
26	206213	6	0.999743742533
26	206233	6.25	0.999743742533
26	206253	6.5	0.999743742533
26	206273	6.75	0.999743742533
26	213803	7	0.99970203541
26	219901	7.25	0.99969966339
26	223346	7.5	0.999681104106
26	236982	7.75	0.99967602696
26	250549	8	0.999659370417
26	250569	8.25	0.999659370417
26	250589	8.5	0.999659370417
26	266230	8.75	0.999629244486
26	266270	9	0.9996170285
26	266290	9.25	0.9996170285
26	266310	9.5	0.9996170285
26	292929	9.75	0.999586963068
26	292969	10	0.999574673669
26	292989	10.25	0.999574673669
26	293009	10.5	0.999574673669
26	293029	10.75	0.999574673669
26	293069	11	0.999533127776
26	293089	11.25	0.999533127776
26	293109	11.5	0.999533127776
26	293129	11.75	0.999533127776
26	293169	12	0.999491581882
26	293189	12.25	0.999491581882
26	293209	12.5	0.999491581882
26	293229	12.75	0.999491581882
26	293269	13	0.999450035988
26	293289	13.25	0.999450035988
26	293309	13.5	0.999450035988
26	293329	13.75	0.999450035988
26	293369	14	0.999408490095
26	293389	14.25	0.999408490095
26	293409	14.5	0.999408490095
26	293429	14.75	0.999408490095
32	0	0	1
32	66	0.25	1
32	86	0.5	1
32	25040	0.75	0.999969054808
32	25080	1	0.999957832083
32	25100	1.25	0.999957832083
32	25120	1.5	0.999957832083
32	25140	1.75	0.999957832083
32	27409	2	0.999916286189
32	27429	2.25	0.999916286189
32	42518	2.5	0.999896963399
32	53661	2.75	0.999884340448
32	75449	3	0.999873134951
32	85141	3.25	0.999863357596
32	98660	3.5	0.99985419563
32	104047	3.75	0.999848452261
32	117819	4	0.999830373837
32	124266	4.25	0.999827989953
32	132757	4.5	0.999809066414
32	141856	4.75	0.999805253836
32	149976	5	0.999787781416
32	172047	5.25	0.999777380601
32	172067	5.5	0.999777380601
32	199086	5.75	0.999754519319
32	206214	6	0.999743925811
32	206234	6.25	0.999743925811
32	206254	6.5	0.999743925811
32	206274	6.75	0.999743925811
32	213804	7	0.999702218688
32	219902	7.25	0.999699846667
32	223347	7.5	0.999681287383
32	236983	7.75	0.999676210237
32	250550	8	0.999659553695
32	250570	8.25	0.999659553695
32	250590	8.5	0.999659553695
32	266231	8.75	0.999629427763
32	266271	9	0.999617211778
32	266291	9.25	0.999617211778
32	266311	9.5	0.999617211778
32	292930	9.75	0.999587191393
32	292970	10	0.999574901994
32	292990	10.25	0.999574901994
32	293010	10.5	0.999574901994
32	293030	10.75	0.999574901994
32	293070	11	0.9995333561
32	293090	11.25	0.9995333561
32	293110	11.5	0.9995333561
32	293130	11.75	0.9995333561
32	293170	12	0.999491810207
32	293190	12.25	0.999491810207
32	293210	12.5	0.999491810207
32	293230	12.75	0.999491810207
32	293270	13	0.999450264313
32	293290	13.25	0.999450264313
32	293310	13.5	0.999450264313
32	293330	13.75	0.999450264313
32	293370	14	0.999408718419
32	293390	14.25	0.999408718419
32	293410	14.5	0.999408718419
32	293430	14.75	0.999408718419
38	0	0	1
38	67	0.25	1
38	87	0.5	1
38	25041	0.75	0.999968994659
38	25081	1	0.999957771934
38	25101	1.25	0.999957771934
38	25121	1.5	0.999957771934
38	25141	1.75	0.999957771934
38	27410	2	0.999916197414
38	27430	2.25	0.999916197414
38	42519	2.5	0.999896224555
38	53662	2.75	0.999887624284
38	75450	3	0.999873600993
38	85142	3.25	0.999863420752
38	98661	3.5	0.999863420752
38	104048	3.75	0.999863420752
38	117820	4	0.999831479127
38	124267	4.25	0.999829204968
38	132758	4.5	0.999810812574
38	141857	4.75	0.999807202759
38	149977	5	0.999789324531
38	172048	5.25	0.999779667509
38	172068	5.5	0.999779667509
38	199087	5.75	0.99975774502
38	206215	6	0.999747181233
38	206235	6.25	0.999747181233
38	206255	6.5	0.999747181233
38	206275	6.75	0.999747181233
38	213805	7	0.99970547227
38	219903	7.25	0.999702928447
38	223348	7.5	0.999684430398
38	236984	7.75	0.99967888124
38	250551	8	0.999663088155
38	250571	8.25	0.999663088155
38	250591	8.5	0.999663088155
38	266232	8.75	0.999634678159
38	266272	9	0.999621458342
38	266292	9.25	0.999621458342
38	266312	9.5	0.999621458342
38	292931	9.75	0.999591624858
38	292971	10	0.999579335459
38	292991	10.25	0.999579335459
38	293011	10.5	0.999579335459
38	293031	10.75	0.999579335459
38	293071	11	0.999537789565
38	293091	11.25	0.999537789565
38	293111	11.5	0.999537789565
38	293131	11.75	0.999537789565
38	293171	12	0.999496243671
38	293191	12.25	0.999496243671
38	293211	12.5	0.999496243671
38	293231	12.75	0.999496243671
38	293271	13	0.999454697778
38	293291	13.25	0.999454697778
38	293311	13.5	0.999454697778
38	293331	13.75	0.999454697778
38	293371	14	0.999413151884
38	293391	14.25	0.999413151884
38	293411	14.5	0.999413151884
38	293431	14.75	0.999413151884
44	0	0	1
44	68	0.25	1
44	88	0.5	1
44	25042	0.75	0.999968732124
44	25082	1	0.999957509399
44	25102	1.25	0.999957509399
44	25122	1.5	0.999957509399
44	25142	1.75	0.999957509399
44	27411	2	0.999915868278
44	27431	2.25	0.999915868278
44	42520	2.5	0.999895794607
44	53663	2.75	0.99988379244
44	75451	3	0.999872523057
44	85143	3.25	0.999862291047
44	98662	3.5	0.999853533327
44	104049	3.75	0.999847585146
44	117821	4	0.999829373766
44	124268	4.25	0.999826911366
44	132759	4.5	0.999808068748
44	141858	4.75	0.99980435235
44	149978	5	0.999786458659
44	172049	5.25	0.999776344832
44	172069	5.5	0.999776344832
44	199088	5.75	0.999753718904
44	206216	6	0.99974314138
44	206236	6.25	0.99974314138
44	206256	6.5	0.99974314138
44	206276	6.75	0.99974314138
44	213806	7	0.999701225897
44	219904	7.25	0.999698492735
44	223349	7.5	0.999679988301
44	236985	7.75	0.999674360612
44	250552	8	0.999658262367
44	250572	8.25	0.999658262367
44	250592	8.5	0.999658262367
44	266233	8.75	0.999628644078
44	266273	9	0.999616417374
44	266293	9.25	0.999616417374
44	266313	9.5	0.999616417374
44	292932	9.75	0.999586198425
44	292972	10	0.999573909026
44	292992	10.25	0.999573909026
44	293012	10.5	0.999573909026
44	293032	10.75	0.999573909026
44	293072	11	0.999532363132
44	293092	11.25	0.999532363132
44	293112	11.5	0.999532363132
44	293132	11.75	0.999532363132
44	293172	12	0.999490817239
44	293192	12.25	0.999490817239
44	293212	12.5	0.999490817239
44	293232	12.75	0.999490817239
44	293272	13	0.999449271345
44	293292	13.25	0.999449271345
44	293312	13.5	0.999449271345
44	293332	13.75	0.999449271345
44	293372	14	0.999407725451
44	293392	14.25	0.999407725451
44	293412	14.5	0.999407725451
44	293432	14.75	0.999407725451
50	0	0	1
50	69	0.25	1
50	89	0.5	1
50	25043	0.75	0.999968839861
50	25083	1	0.999957617136
50	25103	1.25	0.999957617136
50	25123	1.5	0.999957617136
50	25143	1.75	0.999957617136
50	27412	2	0.999916071243
50	27432	2.25	0.999916071243
50	42521	2.5	0.999896033401
50	53664	2.75	0.99988743313
50	75452	3	0.999873067011
50	85144	3.25	0.999863121818
50	98663	3.5	0.999863121818
50	104050	3.75	0.999848859124
50	117822	4	0.999831058899
50	124269	4.25	0.99982878474
50	132760	4.5	0.999810392346
50	141859	4.75	0.999806782531
50	149979	5	0.999789135505
50	172050	5.25	0.999779642121
50	172070	5.5	0.999779642121
50	199089	5.75	0.999757343178
50	206217	6	0.999746625426
50	206237	6.25	0.999746625426
50	206257	6.5	0.999746625426
50	206277	6.75	0.999746625426
50	213807	7	0.999704702678
50	219905	7.25	0.999701995127
50	223350	7.5	0.999683495598
50	236986	7.75	0.99967787472
50	250553	8	0.999662081635
50	250573	8.25	0.999662081635
50	250593	8.5	0.999662081635
50	266234	8.75	0.999662081635
50	266274	9	0.999620535741
50	266294	9.25	0.999620535741
50	266314	9.5	0.999620535741
50	292933	9.75	0.999590526303
50	292973	10	0.999578236904
50	292993	10.25	0.999578236904
50	293013	10.5	0.999578236904
50	293033	10.75	0.999578236904
50	293073	11	0.999536691011
50	293093	11.25	0.999536691011
50	293113	11.5	0.999536691011
50	293133	11.75	0.999536691011
50	293173	12	0.999495145117
50	293193	12.25	0.999495145117
50	293213	12.5	0.999495145117
50	293233	12.75	0.999495145117
50	293273	13	0.999453599223
50	293293	13.25	0.999453599223
50	293313	13.5	0.999453599223
50	293333	13.75	0.999453599223
50	293373	14	0.999412053329
50	293393	14.25	0.999412053329
50	293413	14.5	0.999412053329
50	293433	14.75	0.999412053329
56	0	0	1
56	70	0.25	1
56	90	0.5	1
56	25044	0.75	0.999969202397
56	25084	1	0.999957979671
56	25104	1.25	0.999957979671
56	25124	1.5	0.999957979671
56	25144	1.75	0.999957979671
56	27413	2	0.999916240402
56	27433	2.25	0.999916240402
56	42522	2.5	0.999896166731
56	53665	2.75	0.999883710477
56	75453	3	0.999872347084
56	85145	3.25	0.999862150041
56	98664	3.5	0.999852860017
56	104051	3.75	0.999846794496
56	117823	4	0.999828471814
56	124270	4.25	0.999825956421
56	132761	4.5	0.999806968852
56	141860	4.75	0.999803092245
56	149980	5	0.999785302661
56	172051	5.25	0.999774878183
56	172071	5.5	0.999774878183
56	199090	5.75	0.999751817592
56	206218	6	0.999741125451
56	206238	6.25	0.999741125451
56	206258	6.5	0.999741125451
56	206278	6.75	0.999741125451
56	213808	7	0.999699197163
56	219906	7.25	0.999696476806
56	223351	7.5	0.999677972373
56	236987	7.75	0.999672331878
56	250554	8	0.999655712048
56	250574	8.25	0.999655712048
56	250594	8.5	0.999655712048
56	266235	8.75	0.999625458059
56	266275	9	0.999613242073
56	266295	9.25	0.999613242073
56	266315	9.5	0.999613242073
56	292934	9.75	0.999583013656
56	292974	10	0.999570724257
56	292994	10.25	0.999570724257
56	293014	10.5	0.999570724257
56	293034	10.75	0.999570724257
56	293074	11	0.999529178363
56	293094	11.25	0.999529178363
56	293114	11.5	0.999529178363
56	293134	11.75	0.999529178363
56	293174	12	0.999487632469
56	293194	12.25	0.999487632469
56	293214	12.5	0.999487632469
56	293234	12.75	0.999487632469
56	293274	13	0.999446086576
56	293294	13.25	0.999446086576
56	293314	13.5	0.999446086576
56	293334	13.75	0.999446086576
56	293374	14	0.999404540682
56	293394	14.25	0.999404540682
56	293414	14.5	0.999404540682
56	293434	14.75	0.999404540682
62	0	0	1
62	71	0.25	1
62	91	0.5	1
62	25045	0.75	0.999969077604
62	25085	1	0.999957854879
62	25105	1.25	0.999957854879
62	25125	1.5	0.999957854879
62	25145	1.75	0.999957854879
62	27414	2	0.999916308986
62	27434	2.25	0.999916308986
62	42523	2.5	0.999897138775
62	53666	2.75	0.999884531717
62	75454	3	0.9998735959
62	85146	3.25	0.999863818545
62	98665	3.5	0.999855019864
62	104052	3.75	0.999855019864
62	117824	4	0.999831019062
62	124271	4.25	0.999828490863
62	132762	4.5	0.999809554518
62	141861	4.75	0.999805754746
62	149981	5	0.999788282327
62	172052	5.25	0.999777881511
62	172072	5.5	0.999777881511
62	199091	5.75	0.999755216996
62	206219	6	0.999744760015
62	206239	6.25	0.999744760015
62	206259	6.5	0.999744760015
62	206279	6.75	0.999744760015
62	213809	7	0.99970314444
62	219907	7.25	0.999700833452
62	223352	7.5	0.999682721238
62	236988	7.75	0.999677422889
62	250555	8	0.999660693059
62	250575	8.25	0.999660693059
62	250595	8.5	0.999660693059
62	266236	8.75	0.999630567127
62	266276	9	0.999618351142
62	266296	9.25	0.999618351142
62	266316	9.5	0.999618351142
62	292935	9.75	0.99958833137
62	292975	10	0.999576041971
62	292995	10.25	0.999576041971
62	293015	10.5	0.999576041971
62	293035	10.75	0.999576041971
62	293075	11	0.999534496077
62	293095	11.25	0.999534496077
62	293115	11.5	0.999534496077
62	293135	11.75	0.999534496077
62	293175	12	0.999492950183
62	293195	12.25	0.999492950183
62	293215	12.5	0.999492950183
62	293235	12.75	0.999492950183
62	293275	13	0.99945140429
62	293295	13.25	0.99945140429
62	293315	13.5	0.99945140429
62	293335	13.75	0.99945140429
62	293375	14	0.999409858396
62	293395	14.25	0.999409858396
62	293415	14.5	0.999409858396
62	293435	14.75	0.999409858396
68	0	0	1
68	72	0.25	1
68	92	0.5	1
68	25046	0.75	0.999969097222
68	25086	1	0.999957874497
68	25106	1.25	0.999957874497
68	25126	1.5	0.999957874497
68	25146	1.75	0.999957874497
68	27415	2	0.999916328603
68	27435	2.25	0.999916328603
68	42524	2.5	0.999897005813
68	53667	2.75	0.999884395667
68	75455	3	0.999873177364
68	85147	3.25	0.99986340001
68	98666	3.5	0.999854238044
68	104053	3.75	0.999848494674
68	117825	4	0.999830084662
68	124272	4.25	0.999827556463
68	132763	4.5	0.999808620118
68	141862	4.75	0.999804820346
68	149982	5	0.999787347927
68	172053	5.25	0.99977742583
68	172073	5.5	0.99977742583
68	199092	5.75	0.999754564548
68	206220	6	0.99974397104
68	206240	6.25	0.99974397104
68	206260	6.5	0.99974397104
68	206280	6.75	0.99974397104
68	213810	7	0.999702263917
68	219908	7.25	0.999699891896
68	223353	7.5	0.999681332612
68	236989	7.75	0.999676255466
68	250556	8	0.999659598924
68	250576	8.25	0.999659598924
68	250596	8.5	0.999659598924
68	266237	8.75	0.999629472992
68	266277	9	0.999617257007
68	266297	9.25	0.999617257007
68	266317	9.5	0.999617257007
68	292936	9.75	0.999587220728
68	292976	10	0.999574931329
68	292996	10.25	0.999574931329
68	293016	10.5	0.999574931329
68	293036	10.75	0.999574931329
68	293076	11	0.999533385436
68	293096	11.25	0.999533385436
68	293116	11.5	0.999533385436
68	293136	11.75	0.999533385436
68	293176	12	0.999491839542
68	293196	12.25	0.999491839542
68	293216	12.5	0.999491839542
68	293236	12.75	0.999491839542
68	293276	13	0.999450293648
68	293296	13.25	0.999450293648
68	293316	13.5	0.999450293648
68	293336	13.75	0.999450293648
68	293376	14	0.999408747754
68	293396	14.25	0.999408747754
68	293416	14.5	0.999408747754
68	293436	14.75	0.999408747754
74	0	0	1
74	73	0.25	1
74	93	0.5	1
74	25047	0.75	0.99996887675
74	25087	1	0.999957654025
74	25107	1.25	0.999957654025
74	25127	1.5	0.999957654025
74	25147	1.75	0.999957654025
74	27416	2	0.999915914756
74	27436	2.25	0.999915914756
74	42525	2.5	0.999895841084
74	53668	2.75	0.999887240813
74	75456	3	0.999872874694
74	85148	3.25	0.999862694452
74	98667	3.5	0.999862694452
74	104054	3.75	0.999848165652
74	117826	4	0.999830365426
74	124273	4.25	0.999828091267
74	132764	4.5	0.999809698873
74	141863	4.75	0.999806089059
74	149983	5	0.999788301561
74	172054	5.25	0.999778781178
74	172074	5.5	0.999778781178
74	199093	5.75	0.999756443818
74	206221	6	0.999745790095
74	206241	6.25	0.999745790095
74	206261	6.5	0.999745790095
74	206281	6.75	0.999745790095
74	213811	7	0.999703861807
74	219909	7.25	0.99970114145
74	223354	7.5	0.999682727837
74	236990	7.75	0.999677416116
74	250557	8	0.99966162303
74	250577	8.25	0.99966162303
74	250597	8.5	0.99966162303
74	266238	8.75	0.99966162303
74	266278	9	0.999620077136
74	266298	9.25	0.999620077136
74	266318	9.5	0.999620077136
74	292937	9.75	0.999590168821
74	292977	10	0.999577879422
74	292997	10.25	0.999577879422
74	293017	10.5	0.999577879422
74	293037	10.75	0.999577879422
74	293077	11	0.999536333528
74	293097	11.25	0.999536333528
74	293117	11.5	0.999536333528
74	293137	11.75	0.999536333528
74	293177	12	0.999494787635
74	293197	12.25	0.999494787635
74	293217	12.5	0.999494787635
74	293237	12.75	0.999494787635
74	293277	13	0.999453241741
74	293297	13.25	0.999453241741
74	293317	13.5	0.999453241741
74	293337	13.75	0.999453241741
74	293377	14	0.999411695847
74	293397	14.25	0.999411695847
74	293417	14.5	0.999411695847
74	293437	14.75	0.999411695847
80	0	0	1
80	74	0.25	1
80	94	0.5	1
80	25048	0.75	0.999969077604
80	25088	1	0.999957854879
80	25108	1.25	0.999957854879
80	25128	1.5	0.999957854879
80	25148	1.75	0.999957854879
80	27417	2	0.999916308986
80	27437	2.25	0.999916308986
80	42526	2.5	0.999897138775
80	53669	2.75	0.999884528629
80	75457	3	0.999873723957
80	85149	3.25	0.999863946603
80	98668	3.5	0.999854784637
80	104055	3.75	0.999854784637
80	117827	4	0.999830783835
80	124274	4.25	0.999828255636
80	132765	4.5	0.999809319291
80	141864	4.75	0.999805519519
80	149984	5	0.999788047099
80	172055	5.25	0.999777646284
80	172075	5.5	0.999777646284
80	199094	5.75	0.999755083762
80	206222	6	0.999744626781
80	206242	6.25	0.999744626781
80	206262	6.5	0.999744626781
80	206282	6.75	0.999744626781
80	213812	7	0.999703011206
80	219910	7.25	0.999700700217
80	223355	7.5	0.999682588004
80	236991	7.75	0.999677289654
80	250558	8	0.999660559824
80	250578	8.25	0.999660559824
80	250598	8.5	0.999660559824
80	266239	8.75	0.999630842225
80	266279	9	0.99961862624
80	266299	9.25	0.99961862624
80	266319	9.5	0.99961862624
80	292938	9.75	0.999588606467
80	292978	10	0.999576317069
80	292998	10.25	0.999576317069
80	293018	10.5	0.999576317069
80	293038	10.75	0.999576317069
80	293078	11	0.999534771175
80	293098	11.25	0.999534771175
80	293118	11.5	0.999534771175
80	293138	11.75	0.999534771175
80	293178	12	0.999493225281
80	293198	12.25	0.999493225281
80	293218	12.5	0.999493225281
80	293238	12.75	0.999493225281
80	293278	13	0.999451679387
80	293298	13.25	0.999451679387
80	293318	13.5	0.999451679387
80	293338	13.75	0.999451679387
80	293378	14	0.999410133494
80	293398	14.25	0.999410133494
80	293418	14.5	0.999410133494
80	293438	14.75	0.999410133494
86	0	0	1
86	75	0.25	1
86	95	0.5	1
86	25049	0.75	0.999969072085
86	25089	1	0.99995784936
86	25109	1.25	0.99995784936
86	25129	1.5	0.99995784936
86	25149	1.75	0.99995784936
86	27418	2	0.999916129028
86	27438	2.25	0.999916129028
86	42527	2.5	0.9998966256
86	53670	2.75	0.999884219659
86	75458	3	0.999873430064
86	85150	3.25	0.999863365892
86	98669	3.5	0.999854152158
86	104056	3.75	0.999854152158
86	117828	4	0.999830115118
86	124275	4.25	0.999827571389
86	132766	4.5	0.99980862422
86	141865	4.75	0.999804783503
86	149985	5	0.999787229275
86	172056	5.25	0.999776775033
86	172076	5.5	0.999776775033
86	199095	5.75	0.999754318786
86	206223	6	0.999743861805
86	206243	6.25	0.999743861805
86	206263	6.5	0.999743861805
86	206283	6.75	0.999743861805
86	213813	7	0.99970224623
86	219911	7.25	0.999699935241
86	223356	7.5	0.999681736145
86	236992	7.75	0.999676448388
86	250559	8	0.99965966679
86	250579	8.25	0.99965966679
86	250599	8.5	0.99965966679
86	266240	8.75	0.999629616536
86	266280	9	0.999617400551
86	266300	9.25	0.999617400551
86	266320	9.5	0.999617400551
86	292939	9.75	0.999587473895
86	292979	10	0.999575184497
86	292999	10.25	0.999575184497
86	293019	10.5	0.999575184497
86	293039	10.75	0.999575184497
86	293079	11	0.999533638603
86	293099	11.25	0.999533638603
86	293119	11.5	0.999533638603
86	293139	11.75	0.999533638603
86	293179	12	0.999492092709
86	293199	12.25	0.999492092709
86	293219	12.5	0.999492092709
86	293239	12.75	0.999492092709
86	293279	13	0.999450546815
86	293299	13.25	0.999450546815
86	293319	13.5	0.999450546815
86	293339	13.75	0.999450546815
86	293379	14	0.999409000922
86	293399	14.25	0.999409000922
86	293419	14.5	0.999409000922
86	293439	14.75	0.999409000922
92	0	0	1
92	76	0.25	1
92	96	0.5	1
92	25050	0.75	0.999968889102
92	25090	1	0.999957666377
92	25110	1.25	0.999957666377
92	25130	1.5	0.999957666377
92	25150	1.75	0.999957666377
92	27419	2	0.999915927107
92	27439	2.25	0.999915927107
92	42528	2.5	0.999896239245
92	53671	2.75	0.999887638973
92	75459	3	0.999873272854
92	85151	3.25	0.999863118224
92	98670	3.5	0.999863118224
92	104057	3.75	0.999848589424
92	117829	4	0.999830789198
92	124276	4.25	0.999828515039
92	132767	4.5	0.999810122645
92	141866	4.75	0.999806512831
92	149986	5	0.999788712527
92	172057	5.25	0.99977920495
92	172077	5.5	0.99977920495
92	199096	5.75	0.999756893201
92	206224	6	0.999746188255
92	206244	6.25	0.999746188255
92	206264	6.5	0.999746188255
92	206284	6.75	0.999746188255
92	213814	7	0.999704259967
92	219912	7.25	0.99970153961
92	223357	7.5	0.999683047982
92	236993	7.75	0.999677394682
92	250560	8	0.999661601596
92	250580	8.25	0.999661601596
92	250600	8.5	0.999661601596
92	266241	8.75	0.999661601596
92	266281	9	0.999620055702
92	266301	9.25	0.999620055702
92	266321	9.5	0.999620055702
92	292940	9.75	0.999590029955
92	292980	10	0.999577740556
92	293000	10.25	0.999577740556
92	293020	10.5	0.999577740556
92	293040	10.75	0.999577740556
92	293080	11	0.999536194663
92	293100	11.25	0.999536194663
92	293120	11.5	0.999536194663
92	293140	11.75	0.999536194663
92	293180	12	0.999494648769
92	293200	12.25	0.999494648769
92	293220	12.5	0.999494648769
92	293240	12.75	0.999494648769
92	293280	13	0.999453102875
92	293300	13.25	0.999453102875
92	293320	13.5	0.999453102875
92	293340	13.75	0.999453102875
92	293380	14	0.999411556982
92	293400	14.25	0.999411556982
92	293420	14.5	0.999411556982
92	293440	14.75	0.999411556982
98	0	0	1
98	77	0.25	1
98	97	0.5	1
98	25051	0.75	0.99996890545
98	25091	1	0.999957682725
98	25111	1.25	0.999957682725
98	25131	1.5	0.999957682725
98	25151	1.75	0.999957682725
98	27420	2	0.999916041604
98	27440	2.25	0.999916041604
98	42529	2.5	0.999895967933
98	53672	2.75	0.999887367661
98	75460	3	0.999873001542
98	85152	3.25	0.999862769532
98	98671	3.5	0.999862769532
98	104058	3.75	0.99984836879
98	117830	4	0.999830568564
98	124277	4.25	0.999828294405
98	132768	4.5	0.999809902012
98	141867	4.75	0.999806292197
98	149987	5	0.999788419575
98	172058	5.25	0.999778909909
98	172078	5.5	0.999778909909
98	199097	5.75	0.99975659816
98	206225	6	0.999745893213
98	206245	6.25	0.999745893213
98	206265	6.5	0.999745893213
98	206285	6.75	0.999745893213
98	213815	7	0.999704171635
98	219913	7.25	0.999701593776
98	223358	7.5	0.999683089343
98	236994	7.75	0.999677461654
98	250561	8	0.999661668568
98	250581	8.25	0.999661668568
98	250601	8.5	0.999661668568
98	266242	8.75	0.999661668568
98	266282	9	0.999620122674
98	266302	9.25	0.999620122674
98	266322	9.5	0.999620122674
98	292941	9.75	0.999590198465
98	292981	10	0.999577909067
98	293001	10.25	0.999577909067
98	293021	10.5	0.999577909067
98	293041	10.75	0.999577909067
98	293081	11	0.999536363173
98	293101	11.25	0.999536363173
98	293121	11.5	0.999536363173
98	293141	11.75	0.999536363173
98	293181	12	0.999494817279
98	293201	12.25	0.999494817279
98	293221	12.5	0.999494817279
98	293241	12.75	0.999494817279
98	293281	13	0.999453271385