file 1115 1253793440                                            
version 2
run Two-0-20090924-13:56:35-18866
attr configname Two
attr datetime 20090924-13:56:35
attr experiment Two
attr inifile omnetpp.ini
attr iterationvars ""
attr iterationvars2 $repetition=0
attr measurement ""
attr network sim
attr processid 18866
attr repetition 0
attr replication #0
attr resultdir results
attr runnumber 0
attr seedset 0
vector 2  sim.host[0].batteryStats  capacity(relative)  ETV
2	469 328 0 54 0 10 15 0.6649998288 0.666666666667 9.987565689067 6.6501023404306
vector 7  sim.host[1].batteryStats  capacity(relative)  ETV
7	797 318 0 54 0 10 14 0.6649998288 0.666666666667 9.323204964976 6.2087288896102
