version 2
run Eight-0-20091217-15:09:15-32029
attr configname Eight
attr datetime 20091217-15:09:15
attr experiment Eight
attr inifile omnetpp.ini
attr iterationvars ""
attr iterationvars2 $repetition=0
attr measurement ""
attr network sim
attr processid 32029
attr repetition 0
attr replication #0
attr resultdir results
attr runnumber 0
attr seedset 0

vector 2  sim.host[0].batteryStats  capacity(relative)  ETV
vector 7  sim.host[1].batteryStats  capacity(relative)  ETV
vector 12  sim.host[2].batteryStats  capacity(relative)  ETV
vector 17  sim.host[3].batteryStats  capacity(relative)  ETV
vector 22  sim.host[4].batteryStats  capacity(relative)  ETV
vector 27  sim.host[5].batteryStats  capacity(relative)  ETV
vector 32  sim.host[6].batteryStats  capacity(relative)  ETV
vector 37  sim.host[7].batteryStats  capacity(relative)  ETV
vector 42  sim.host[8].batteryStats  capacity(relative)  ETV
vector 47  sim.host[9].batteryStats  capacity(relative)  ETV
vector 52  sim.host[10].batteryStats  capacity(relative)  ETV
vector 57  sim.host[11].batteryStats  capacity(relative)  ETV
vector 62  sim.host[12].batteryStats  capacity(relative)  ETV
vector 67  sim.host[13].batteryStats  capacity(relative)  ETV
vector 72  sim.host[14].batteryStats  capacity(relative)  ETV
vector 77  sim.host[15].batteryStats  capacity(relative)  ETV
vector 82  sim.host[16].batteryStats  capacity(relative)  ETV
vector 87  sim.host[17].batteryStats  capacity(relative)  ETV
vector 92  sim.host[18].batteryStats  capacity(relative)  ETV
vector 97  sim.host[19].batteryStats  capacity(relative)  ETV
2	0	0	0.666666666667
2	61	0.25	0.666666666667
2	81	0.5	0.666666666667
2	15446	0.75	0.666490036585
2	15486	1	0.6664
2	15506	1.25	0.6664
2	15526	1.5	0.6664
2	15546	1.75	0.6664
2	16878	2	0.666133333333
2	16898	2.25	0.666133333333
2	26733	2.5	0.666021596484
2	37045	2.75	0.665933381203
2	48499	3	0.665866666667
2	53624	3.25	0.665822454693
2	63140	3.5	0.665760618881
2	66921	3.75	0.665718235317
2	80804	4	0.6656
2	82415	4.25	0.665595832245
2	91050	4.5	0.665466668972
2	94656	4.75	0.665456656171
2	101984	5	0.665333333333
2	117968	5.25	0.665286133479
2	117988	5.5	0.665286133479
2	138233	5.75	0.665133334734
2	139909	6	0.665066666667
2	139929	6.25	0.665066666667
2	139949	6.5	0.665066666667
2	139969	6.75	0.665066666667
2	148218	7	0.6648
2	149712	7.25	0.664795974492
2	153195	7.5	0.664666673248
2	161749	7.75	0.664646457248
2	170682	8	0.664533333333
2	170702	8.25	0.664533333333
2	170722	8.5	0.664533333333
2	179721	8.75	0.664360588148
2	179761	9	0.664266666667
2	179781	9.25	0.664266666667
2	179801	9.5	0.664266666667
2	198590	9.75	0.664093271187
2	198630	10	0.664
2	198650	10.25	0.664
2	198670	10.5	0.664
2	198690	10.75	0.664
2	198730	11	0.663733333333
2	198750	11.25	0.663733333333
2	198770	11.5	0.663733333333
2	198790	11.75	0.663733333333
2	198830	12	0.663466666667
2	198850	12.25	0.663466666667
2	198870	12.5	0.663466666667
2	198890	12.75	0.663466666667
2	198930	13	0.6632
2	198950	13.25	0.6632
2	198970	13.5	0.6632
2	198990	13.75	0.6632
2	199030	14	0.662933333333
2	199050	14.25	0.662933333333
2	199070	14.5	0.662933333333
2	199090	14.75	0.662933333333
2	199130	15	0.662666666667
2	199150	15.25	0.662666666667
2	199170	15.5	0.662666666667
2	199190	15.75	0.662666666667
2	199230	16	0.6624
2	199250	16.25	0.6624
2	199270	16.5	0.6624
2	199290	16.75	0.6624
2	199330	17	0.662133333333
2	199350	17.25	0.662133333333
2	199370	17.5	0.662133333333
2	199390	17.75	0.662133333333
2	199430	18	0.661866666667
2	199450	18.25	0.661866666667
2	199470	18.5	0.661866666667
2	199490	18.75	0.661866666667
2	199530	19	0.6616
2	199550	19.25	0.6616
2	199570	19.5	0.6616
2	199590	19.75	0.6616
2	199630	20	0.661333333333
2	199650	20.25	0.661333333333
2	199670	20.5	0.661333333333
2	199690	20.75	0.661333333333
2	199730	21	0.661066666667
2	199750	21.25	0.661066666667
2	199770	21.5	0.661066666667
2	199790	21.75	0.661066666667
2	199830	22	0.6608
2	199850	22.25	0.6608
2	199870	22.5	0.6608
2	199890	22.75	0.6608
2	199930	23	0.660533333333
2	199950	23.25	0.660533333333
2	199970	23.5	0.660533333333
2	199990	23.75	0.660533333333
2	200030	24	0.660266666667
2	200050	24.25	0.660266666667
2	200070	24.5	0.660266666667
2	200090	24.75	0.660266666667
2	200130	25	0.66
2	200150	25.25	0.66
2	200170	25.5	0.66
2	200190	25.75	0.66
2	200230	26	0.659733333333
2	200250	26.25	0.659733333333
2	200270	26.5	0.659733333333
2	200290	26.75	0.659733333333
2	200330	27	0.659466666667
2	200350	27.25	0.659466666667
2	200370	27.5	0.659466666667
2	200390	27.75	0.659466666667
2	200430	28	0.6592
2	200450	28.25	0.6592
2	200470	28.5	0.6592
2	200490	28.75	0.6592
2	200530	29	0.658933333333
2	200550	29.25	0.658933333333
2	200570	29.5	0.658933333333
2	200590	29.75	0.658933333333
2	200630	30	0.658666666667
2	200650	30.25	0.658666666667
2	200670	30.5	0.658666666667
2	200690	30.75	0.658666666667
2	200730	31	0.6584
2	200750	31.25	0.6584
2	200770	31.5	0.6584
2	200790	31.75	0.6584
2	200830	32	0.658133333333
2	200850	32.25	0.658133333333
2	200870	32.5	0.658133333333
2	200890	32.75	0.658133333333
2	200930	33	0.657866666667
2	200950	33.25	0.657866666667
2	200970	33.5	0.657866666667
2	200990	33.75	0.657866666667
2	201030	34	0.6576
2	201050	34.25	0.6576
2	201070	34.5	0.6576
2	201090	34.75	0.6576
2	201130	35	0.657333333333
2	201150	35.25	0.657333333333
2	201170	35.5	0.657333333333
2	201190	35.75	0.657333333333
2	201230	36	0.657066666667
2	201250	36.25	0.657066666667
2	201270	36.5	0.657066666667
2	201290	36.75	0.657066666667
2	201330	37	0.6568
2	201350	37.25	0.6568
2	201370	37.5	0.6568
2	201390	37.75	0.6568
2	201430	38	0.656533333333
2	201450	38.25	0.656533333333
2	201470	38.5	0.656533333333
2	201490	38.75	0.656533333333
2	201530	39	0.656266666667
2	201550	39.25	0.656266666667
2	201570	39.5	0.656266666667
2	201590	39.75	0.656266666667
2	201630	40	0.656
2	201650	40.25	0.656
2	201670	40.5	0.656
2	201690	40.75	0.656
2	201730	41	0.655733333333
2	201750	41.25	0.655733333333
2	201770	41.5	0.655733333333
2	201790	41.75	0.655733333333
2	201830	42	0.655466666667
2	201850	42.25	0.655466666667
2	201870	42.5	0.655466666667
2	201890	42.75	0.655466666667
2	201930	43	0.6552
2	201950	43.25	0.6552
2	201970	43.5	0.6552
2	201990	43.75	0.6552
2	202030	44	0.654933333333
2	202050	44.25	0.654933333333
2	202070	44.5	0.654933333333
2	202090	44.75	0.654933333333
2	202130	45	0.654666666667
2	202150	45.25	0.654666666667
2	202170	45.5	0.654666666667
2	202190	45.75	0.654666666667
2	202230	46	0.6544
2	202250	46.25	0.6544
2	202270	46.5	0.6544
2	202290	46.75	0.6544
2	202330	47	0.654133333333
2	202350	47.25	0.654133333333
2	202370	47.5	0.654133333333
2	202390	47.75	0.654133333333
2	202430	48	0.653866666667
2	202450	48.25	0.653866666667
2	202470	48.5	0.653866666667
2	202490	48.75	0.653866666667
2	202530	49	0.6536
2	202550	49.25	0.6536
2	202570	49.5	0.6536
2	202590	49.75	0.6536
2	202630	50	0.653333333333
2	202650	50.25	0.653333333333
2	202670	50.5	0.653333333333
2	202690	50.75	0.653333333333
2	202730	51	0.653066666667
2	202750	51.25	0.653066666667
2	202770	51.5	0.653066666667
2	202790	51.75	0.653066666667
2	202830	52	0.6528
2	202850	52.25	0.6528
2	202870	52.5	0.6528
2	202890	52.75	0.6528
2	202930	53	0.652533333333
2	202950	53.25	0.652533333333
2	202970	53.5	0.652533333333
2	202990	53.75	0.652533333333
2	203030	54	0.652266666667
2	203050	54.25	0.652266666667
2	203070	54.5	0.652266666667
2	203090	54.75	0.652266666667
2	203130	55	0.652
2	203150	55.25	0.652
2	203170	55.5	0.652
2	203190	55.75	0.652
2	203230	56	0.651733333333
2	203250	56.25	0.651733333333
2	203270	56.5	0.651733333333
2	203290	56.75	0.651733333333
2	203330	57	0.651466666667
2	203350	57.25	0.651466666667
2	203370	57.5	0.651466666667
2	203390	57.75	0.651466666667
2	203430	58	0.6512
2	203450	58.25	0.6512
2	203470	58.5	0.6512
2	203490	58.75	0.6512
2	203530	59	0.650933333333
2	203550	59.25	0.650933333333
2	203570	59.5	0.650933333333
2	203590	59.75	0.650933333333
2	203630	60	0.650666666667
2	203650	60.25	0.650666666667
2	203670	60.5	0.650666666667
2	203690	60.75	0.650666666667
2	203730	61	0.6504
2	203750	61.25	0.6504
2	203770	61.5	0.6504
2	203790	61.75	0.6504
2	203830	62	0.650133333333
2	203850	62.25	0.650133333333
2	203870	62.5	0.650133333333
2	203890	62.75	0.650133333333
2	203930	63	0.649866666667
2	203950	63.25	0.649866666667
2	203970	63.5	0.649866666667
2	203990	63.75	0.649866666667
2	204030	64	0.6496
2	204050	64.25	0.6496
2	204070	64.5	0.6496
2	204090	64.75	0.6496
2	204130	65	0.649333333333
2	204150	65.25	0.649333333333
2	204170	65.5	0.649333333333
2	204190	65.75	0.649333333333
2	204230	66	0.649066666667
2	204250	66.25	0.649066666667
2	204270	66.5	0.649066666667
2	204290	66.75	0.649066666667
2	204330	67	0.6488
2	204350	67.25	0.6488
2	204370	67.5	0.6488
2	204390	67.75	0.6488
2	204430	68	0.648533333333
2	204450	68.25	0.648533333333
2	204470	68.5	0.648533333333
2	204490	68.75	0.648533333333
2	204530	69	0.648266666667
2	204550	69.25	0.648266666667
2	204570	69.5	0.648266666667
2	204590	69.75	0.648266666667
2	204630	70	0.648
2	204650	70.25	0.648
2	204670	70.5	0.648
2	204690	70.75	0.648
2	204730	71	0.647733333333
2	204750	71.25	0.647733333333
2	204770	71.5	0.647733333333
2	204790	71.75	0.647733333333
2	204830	72	0.647466666667
2	204850	72.25	0.647466666667
2	204870	72.5	0.647466666667
2	204890	72.75	0.647466666667
2	204930	73	0.6472
2	204950	73.25	0.6472
2	204970	73.5	0.6472
2	204990	73.75	0.6472
2	205030	74	0.646933333333
2	205050	74.25	0.646933333333
2	205070	74.5	0.646933333333
2	205090	74.75	0.646933333333
2	205130	75	0.646666666667
2	205150	75.25	0.646666666667
2	205170	75.5	0.646666666667
2	205190	75.75	0.646666666667
2	205230	76	0.6464
2	205250	76.25	0.6464
2	205270	76.5	0.6464
2	205290	76.75	0.6464
2	205330	77	0.646133333333
2	205350	77.25	0.646133333333
2	205370	77.5	0.646133333333
2	205390	77.75	0.646133333333
2	205430	78	0.645866666667
2	205450	78.25	0.645866666667
2	205470	78.5	0.645866666667
2	205490	78.75	0.645866666667
2	205530	79	0.6456
2	205550	79.25	0.6456
2	205570	79.5	0.6456
2	205590	79.75	0.6456
2	205630	80	0.645333333333
2	205650	80.25	0.645333333333
2	205670	80.5	0.645333333333
2	205690	80.75	0.645333333333
2	205730	81	0.645066666667
2	205750	81.25	0.645066666667
2	205770	81.5	0.645066666667
2	205790	81.75	0.645066666667
2	205830	82	0.6448
2	205850	82.25	0.6448
2	205870	82.5	0.6448
2	205890	82.75	0.6448
2	205930	83	0.644533333333
2	205950	83.25	0.644533333333
2	205970	83.5	0.644533333333
2	205990	83.75	0.644533333333
2	206030	84	0.644266666667
2	206050	84.25	0.644266666667
2	206070	84.5	0.644266666667
2	206090	84.75	0.644266666667
2	206130	85	0.644
2	206150	85.25	0.644
2	206170	85.5	0.644
2	206190	85.75	0.644
2	206230	86	0.643733333333
2	206250	86.25	0.643733333333
2	206270	86.5	0.643733333333
2	206290	86.75	0.643733333333
2	206330	87	0.643466666667
2	206350	87.25	0.643466666667
2	206370	87.5	0.643466666667
2	206390	87.75	0.643466666667
2	206430	88	0.6432
2	206450	88.25	0.6432
2	206470	88.5	0.6432
2	206490	88.75	0.6432
2	206530	89	0.642933333333
2	206550	89.25	0.642933333333
2	206570	89.5	0.642933333333
2	206590	89.75	0.642933333333
2	206630	90	0.642666666667
2	206650	90.25	0.642666666667
2	206670	90.5	0.642666666667
2	206690	90.75	0.642666666667
2	206730	91	0.6424
2	206750	91.25	0.6424
2	206770	91.5	0.6424
2	206790	91.75	0.6424
2	206830	92	0.642133333333
2	206850	92.25	0.642133333333
2	206870	92.5	0.642133333333
2	206890	92.75	0.642133333333
2	206930	93	0.641866666667
2	206950	93.25	0.641866666667
2	206970	93.5	0.641866666667
2	206990	93.75	0.641866666667
2	207030	94	0.6416
2	207050	94.25	0.6416
2	207070	94.5	0.6416
2	207090	94.75	0.6416
2	207130	95	0.641333333333
2	207150	95.25	0.641333333333
2	207170	95.5	0.641333333333
2	207190	95.75	0.641333333333
2	207230	96	0.641066666667
2	207250	96.25	0.641066666667
2	207270	96.5	0.641066666667
2	207290	96.75	0.641066666667
2	207330	97	0.6408
2	207350	97.25	0.6408
2	207370	97.5	0.6408
2	207390	97.75	0.6408
2	207430	98	0.640533333333
2	207450	98.25	0.640533333333
2	207470	98.5	0.640533333333
2	207490	98.75	0.640533333333
2	207530	99	0.640266666667
2	207550	99.25	0.640266666667
2	207570	99.5	0.640266666667
2	207590	99.75	0.640266666667
2	207630	100	0.64
2	207650	100.25	0.64
2	207670	100.5	0.64
2	207690	100.75	0.64
2	207730	101	0.639733333333
2	207750	101.25	0.639733333333
2	207770	101.5	0.639733333333
2	207790	101.75	0.639733333333
2	207830	102	0.639466666667
2	207850	102.25	0.639466666667
2	207870	102.5	0.639466666667
2	207890	102.75	0.639466666667
2	207930	103	0.6392
2	207950	103.25	0.6392
2	207970	103.5	0.6392
2	207990	103.75	0.6392
2	208030	104	0.638933333333
2	208050	104.25	0.638933333333
2	208070	104.5	0.638933333333
2	208090	104.75	0.638933333333
2	208130	105	0.638666666667
2	208150	105.25	0.638666666667
2	208170	105.5	0.638666666667
2	208190	105.75	0.638666666667
2	208230	106	0.6384
2	208250	106.25	0.6384
2	208270	106.5	0.6384
2	208290	106.75	0.6384
2	208330	107	0.638133333333
2	208350	107.25	0.638133333333
2	208370	107.5	0.638133333333
2	208390	107.75	0.638133333333
2	208430	108	0.637866666667
2	208450	108.25	0.637866666667
2	208470	108.5	0.637866666667
2	208490	108.75	0.637866666667
2	208530	109	0.6376
2	208550	109.25	0.6376
2	208570	109.5	0.6376
2	208590	109.75	0.6376
2	208630	110	0.637333333333
2	208650	110.25	0.637333333333
2	208670	110.5	0.637333333333
2	208690	110.75	0.637333333333
2	208730	111	0.637066666667
2	208750	111.25	0.637066666667
2	208770	111.5	0.637066666667
2	208790	111.75	0.637066666667
2	208830	112	0.6368
2	208850	112.25	0.6368
2	208870	112.5	0.6368
2	208890	112.75	0.6368
2	208930	113	0.636533333333
2	208950	113.25	0.636533333333
2	208970	113.5	0.636533333333
2	208990	113.75	0.636533333333
2	209030	114	0.636266666667
2	209050	114.25	0.636266666667
2	209070	114.5	0.636266666667
2	209090	114.75	0.636266666667
2	209130	115	0.636
2	209150	115.25	0.636
2	209170	115.5	0.636
2	209190	115.75	0.636
2	209230	116	0.635733333333
2	209250	116.25	0.635733333333
2	209270	116.5	0.635733333333
2	209290	116.75	0.635733333333
2	209330	117	0.635466666667
2	209350	117.25	0.635466666667
2	209370	117.5	0.635466666667
2	209390	117.75	0.635466666667
2	209430	118	0.6352
2	209450	118.25	0.6352
2	209470	118.5	0.6352
2	209490	118.75	0.6352
2	209530	119	0.634933333333
2	209550	119.25	0.634933333333
2	209570	119.5	0.634933333333
2	209590	119.75	0.634933333333
2	209630	120	0.634666666667
2	209650	120.25	0.634666666667
2	209670	120.5	0.634666666667
2	209690	120.75	0.634666666667
2	209730	121	0.6344
2	209750	121.25	0.6344
2	209770	121.5	0.6344
2	209790	121.75	0.6344
2	209830	122	0.634133333333
2	209850	122.25	0.634133333333
2	209870	122.5	0.634133333333
2	209890	122.75	0.634133333333
2	209930	123	0.633866666667
2	209950	123.25	0.633866666667
2	209970	123.5	0.633866666667
2	209990	123.75	0.633866666667
2	210030	124	0.6336
2	210050	124.25	0.6336
2	210070	124.5	0.6336
2	210090	124.75	0.6336
2	210130	125	0.633333333333
2	210150	125.25	0.633333333333
2	210170	125.5	0.633333333333
2	210190	125.75	0.633333333333
2	210230	126	0.633066666667
2	210250	126.25	0.633066666667
2	210270	126.5	0.633066666667
2	210290	126.75	0.633066666667
2	210330	127	0.6328
2	210350	127.25	0.6328
2	210370	127.5	0.6328
2	210390	127.75	0.6328
2	210430	128	0.632533333333
2	210450	128.25	0.632533333333
2	210470	128.5	0.632533333333
2	210490	128.75	0.632533333333
2	210530	129	0.632266666667
2	210550	129.25	0.632266666667
2	210570	129.5	0.632266666667
2	210590	129.75	0.632266666667
2	210630	130	0.632
2	210650	130.25	0.632
2	210670	130.5	0.632
2	210690	130.75	0.632
2	210730	131	0.631733333333
2	210750	131.25	0.631733333333
2	210770	131.5	0.631733333333
2	210790	131.75	0.631733333333
2	210830	132	0.631466666667
2	210850	132.25	0.631466666667
2	210870	132.5	0.631466666667
2	210890	132.75	0.631466666667
2	210930	133	0.6312
2	210950	133.25	0.6312
2	210970	133.5	0.6312
2	210990	133.75	0.6312
2	211030	134	0.630933333333
2	211050	134.25	0.630933333333
2	211070	134.5	0.630933333333
2	211090	134.75	0.630933333333
2	211130	135	0.630666666667
2	211150	135.25	0.630666666667
2	211170	135.5	0.630666666667
2	211190	135.75	0.630666666667
2	211230	136	0.6304
2	211250	136.25	0.6304
2	211270	136.5	0.6304
2	211290	136.75	0.6304
2	211330	137	0.630133333333
2	211350	137.25	0.630133333333
2	211370	137.5	0.630133333333
2	211390	137.75	0.630133333333
2	211430	138	0.629866666667
2	211450	138.25	0.629866666667
2	211470	138.5	0.629866666667
2	211490	138.75	0.629866666667
2	211530	139	0.6296
2	211550	139.25	0.6296
2	211570	139.5	0.6296
2	211590	139.75	0.6296
2	211630	140	0.629333333333
2	211650	140.25	0.629333333333
2	211670	140.5	0.629333333333
2	211690	140.75	0.629333333333
2	211730	141	0.629066666667
2	211750	141.25	0.629066666667
2	211770	141.5	0.629066666667
2	211790	141.75	0.629066666667
2	211830	142	0.6288
2	211850	142.25	0.6288
2	211870	142.5	0.6288
2	211890	142.75	0.6288
2	211930	143	0.628533333333
2	211950	143.25	0.628533333333
2	211970	143.5	0.628533333333
2	211990	143.75	0.628533333333
2	212030	144	0.628266666667
2	212050	144.25	0.628266666667
2	212070	144.5	0.628266666667
2	212090	144.75	0.628266666667
2	212130	145	0.628
2	212150	145.25	0.628
2	212170	145.5	0.628
2	212190	145.75	0.628
2	212230	146	0.627733333333
2	212250	146.25	0.627733333333
2	212270	146.5	0.627733333333
2	212290	146.75	0.627733333333
2	212330	147	0.627466666667
2	212350	147.25	0.627466666667
2	212370	147.5	0.627466666667
2	212390	147.75	0.627466666667
2	212430	148	0.6272
2	212450	148.25	0.6272
2	212470	148.5	0.6272
2	212490	148.75	0.6272
2	212530	149	0.626933333333
2	212550	149.25	0.626933333333
2	212570	149.5	0.626933333333
2	212590	149.75	0.626933333333
2	212630	150	0.626666666667
2	212650	150.25	0.626666666667
2	212670	150.5	0.626666666667
2	212690	150.75	0.626666666667
2	212730	151	0.6264
2	212750	151.25	0.6264
2	212770	151.5	0.6264
2	212790	151.75	0.6264
2	212830	152	0.626133333333
2	212850	152.25	0.626133333333
2	212870	152.5	0.626133333333
2	212890	152.75	0.626133333333
2	212930	153	0.625866666667
2	212950	153.25	0.625866666667
2	212970	153.5	0.625866666667
2	212990	153.75	0.625866666667
2	213030	154	0.6256
2	213050	154.25	0.6256
2	213070	154.5	0.6256
2	213090	154.75	0.6256
2	213130	155	0.625333333333
2	213150	155.25	0.625333333333
2	213170	155.5	0.625333333333
2	213190	155.75	0.625333333333
2	213230	156	0.625066666667
2	213250	156.25	0.625066666667
2	213270	156.5	0.625066666667
2	213290	156.75	0.625066666667
2	213330	157	0.6248
2	213350	157.25	0.6248
2	213370	157.5	0.6248
2	213390	157.75	0.6248
2	213430	158	0.624533333333
2	213450	158.25	0.624533333333
2	213470	158.5	0.624533333333
2	213490	158.75	0.624533333333
2	213530	159	0.624266666667
2	213550	159.25	0.624266666667
2	213570	159.5	0.624266666667
2	213590	159.75	0.624266666667
2	213630	160	0.624
2	213650	160.25	0.624
2	213670	160.5	0.624
2	213690	160.75	0.624
2	213730	161	0.623733333333
2	213750	161.25	0.623733333333
2	213770	161.5	0.623733333333
2	213790	161.75	0.623733333333
2	213830	162	0.623466666667
2	213850	162.25	0.623466666667
2	213870	162.5	0.623466666667
2	213890	162.75	0.623466666667
2	213930	163	0.6232
2	213950	163.25	0.6232
2	213970	163.5	0.6232
2	213990	163.75	0.6232
2	214030	164	0.622933333333
2	214050	164.25	0.622933333333
2	214070	164.5	0.622933333333
2	214090	164.75	0.622933333333
2	214130	165	0.622666666667
2	214150	165.25	0.622666666667
2	214170	165.5	0.622666666667
2	214190	165.75	0.622666666667
2	214230	166	0.6224
2	214250	166.25	0.6224
2	214270	166.5	0.6224
2	214290	166.75	0.6224
2	214330	167	0.622133333333
2	214350	167.25	0.622133333333
2	214370	167.5	0.622133333333
2	214390	167.75	0.622133333333
2	214430	168	0.621866666667
2	214450	168.25	0.621866666667
2	214470	168.5	0.621866666667
2	214490	168.75	0.621866666667
2	214530	169	0.6216
2	214550	169.25	0.6216
2	214570	169.5	0.6216
2	214590	169.75	0.6216
2	214630	170	0.621333333333
2	214650	170.25	0.621333333333
2	214670	170.5	0.621333333333
2	214690	170.75	0.621333333333
2	214730	171	0.621066666667
2	214750	171.25	0.621066666667
2	214770	171.5	0.621066666667
2	214790	171.75	0.621066666667
2	214830	172	0.6208
2	214850	172.25	0.6208
2	214870	172.5	0.6208
2	214890	172.75	0.6208
2	214930	173	0.620533333333
2	214950	173.25	0.620533333333
2	214970	173.5	0.620533333333
2	214990	173.75	0.620533333333
2	215030	174	0.620266666667
2	215050	174.25	0.620266666667
2	215070	174.5	0.620266666667
2	215090	174.75	0.620266666667
2	215130	175	0.62
2	215150	175.25	0.62
2	215170	175.5	0.62
2	215190	175.75	0.62
2	215230	176	0.619733333333
2	215250	176.25	0.619733333333
2	215270	176.5	0.619733333333
2	215290	176.75	0.619733333333
2	215330	177	0.619466666667
2	215350	177.25	0.619466666667
2	215370	177.5	0.619466666667
2	215390	177.75	0.619466666667
2	215430	178	0.6192
2	215450	178.25	0.6192
2	215470	178.5	0.6192
2	215490	178.75	0.6192
2	215530	179	0.618933333333
2	215550	179.25	0.618933333333
2	215570	179.5	0.618933333333
2	215590	179.75	0.618933333333
2	215630	180	0.618666666667
2	215650	180.25	0.618666666667
2	215670	180.5	0.618666666667
2	215690	180.75	0.618666666667
2	215730	181	0.6184
2	215750	181.25	0.6184
2	215770	181.5	0.6184
2	215790	181.75	0.6184
2	215830	182	0.618133333333
2	215850	182.25	0.618133333333
2	215870	182.5	0.618133333333
2	215890	182.75	0.618133333333
2	215930	183	0.617866666667
2	215950	183.25	0.617866666667
2	215970	183.5	0.617866666667
2	215990	183.75	0.617866666667
2	216030	184	0.6176
2	216050	184.25	0.6176
2	216070	184.5	0.6176
2	216090	184.75	0.6176
2	216130	185	0.617333333333
2	216150	185.25	0.617333333333
2	216170	185.5	0.617333333333
2	216190	185.75	0.617333333333
2	216230	186	0.617066666667
2	216250	186.25	0.617066666667
2	216270	186.5	0.617066666667
2	216290	186.75	0.617066666667
2	216330	187	0.6168
2	216350	187.25	0.6168
2	216370	187.5	0.6168
2	216390	187.75	0.6168
2	216430	188	0.616533333333
2	216450	188.25	0.616533333333
2	216470	188.5	0.616533333333
2	216490	188.75	0.616533333333
2	216530	189	0.616266666667
2	216550	189.25	0.616266666667
2	216570	189.5	0.616266666667
2	216590	189.75	0.616266666667
2	216630	190	0.616
2	216650	190.25	0.616
2	216670	190.5	0.616
2	216690	190.75	0.616
2	216730	191	0.615733333333
2	216750	191.25	0.615733333333
2	216770	191.5	0.615733333333
2	216790	191.75	0.615733333333
2	216830	192	0.615466666667
2	216850	192.25	0.615466666667
2	216870	192.5	0.615466666667
2	216890	192.75	0.615466666667
2	216930	193	0.6152
2	216950	193.25	0.6152
2	216970	193.5	0.6152
2	216990	193.75	0.6152
2	217030	194	0.614933333333
2	217050	194.25	0.614933333333
2	217070	194.5	0.614933333333
2	217090	194.75	0.614933333333
2	217130	195	0.614666666667
2	217150	195.25	0.614666666667
2	217170	195.5	0.614666666667
2	217190	195.75	0.614666666667
2	217230	196	0.6144
2	217250	196.25	0.6144
2	217270	196.5	0.6144
2	217290	196.75	0.6144
2	217330	197	0.614133333333
2	217350	197.25	0.614133333333
2	217370	197.5	0.614133333333
2	217390	197.75	0.614133333333
2	217430	198	0.613866666667
2	217450	198.25	0.613866666667
2	217470	198.5	0.613866666667
2	217490	198.75	0.613866666667
2	217530	199	0.6136
2	217550	199.25	0.6136
2	217570	199.5	0.6136
2	217590	199.75	0.6136
2	217630	200	0.613333333333
2	217650	200.25	0.613333333333
2	217670	200.5	0.613333333333
2	217690	200.75	0.613333333333
2	217730	201	0.613066666667
2	217750	201.25	0.613066666667
2	217770	201.5	0.613066666667
2	217790	201.75	0.613066666667
2	217830	202	0.6128
2	217850	202.25	0.6128
2	217870	202.5	0.6128
2	217890	202.75	0.6128
2	217930	203	0.612533333333
2	217950	203.25	0.612533333333
2	217970	203.5	0.612533333333
2	217990	203.75	0.612533333333
2	218030	204	0.612266666667
2	218050	204.25	0.612266666667
2	218070	204.5	0.612266666667
2	218090	204.75	0.612266666667
2	218130	205	0.612
2	218150	205.25	0.612
2	218170	205.5	0.612
2	218190	205.75	0.612
2	218230	206	0.611733333333
2	218250	206.25	0.611733333333
2	218270	206.5	0.611733333333
2	218290	206.75	0.611733333333
2	218330	207	0.611466666667
2	218350	207.25	0.611466666667
2	218370	207.5	0.611466666667
2	218390	207.75	0.611466666667
2	218430	208	0.6112
2	218450	208.25	0.6112
2	218470	208.5	0.6112
2	218490	208.75	0.6112
2	218530	209	0.610933333333
2	218550	209.25	0.610933333333
2	218570	209.5	0.610933333333
2	218590	209.75	0.610933333333
2	218630	210	0.610666666667
2	218650	210.25	0.610666666667
2	218670	210.5	0.610666666667
2	218690	210.75	0.610666666667
2	218730	211	0.6104
2	218750	211.25	0.6104
2	218770	211.5	0.6104
2	218790	211.75	0.6104
2	218830	212	0.610133333333
2	218850	212.25	0.610133333333
2	218870	212.5	0.610133333333
2	218890	212.75	0.610133333333
2	218930	213	0.609866666667
2	218950	213.25	0.609866666667
2	218970	213.5	0.609866666667
2	218990	213.75	0.609866666667
2	219030	214	0.6096
2	219050	214.25	0.6096
2	219070	214.5	0.6096
2	219090	214.75	0.6096
2	219130	215	0.609333333333
2	219150	215.25	0.609333333333
2	219170	215.5	0.609333333333
2	219190	215.75	0.609333333333
2	219230	216	0.609066666667
2	219250	216.25	0.609066666667
2	219270	216.5	0.609066666667
2	219290	216.75	0.609066666667
2	219330	217	0.6088
2	219350	217.25	0.6088
2	219370	217.5	0.6088
2	219390	217.75	0.6088
2	219430	218	0.608533333333
2	219450	218.25	0.608533333333
2	219470	218.5	0.608533333333
2	219490	218.75	0.608533333333
2	219530	219	0.608266666667
2	219550	219.25	0.608266666667
2	219570	219.5	0.608266666667
2	219590	219.75	0.608266666667
2	219630	220	0.608
2	219650	220.25	0.608
2	219670	220.5	0.608
2	219690	220.75	0.608
2	219730	221	0.607733333333
2	219750	221.25	0.607733333333
2	219770	221.5	0.607733333333
2	219790	221.75	0.607733333333
2	219830	222	0.607466666667
2	219850	222.25	0.607466666667
2	219870	222.5	0.607466666667
2	219890	222.75	0.607466666667
2	219930	223	0.6072
2	219950	223.25	0.6072
2	219970	223.5	0.6072
2	219990	223.75	0.6072
2	220030	224	0.606933333333
2	220050	224.25	0.606933333333
2	220070	224.5	0.606933333333
2	220090	224.75	0.606933333333
2	220130	225	0.606666666667
2	220150	225.25	0.606666666667
2	220170	225.5	0.606666666667
2	220190	225.75	0.606666666667
2	220230	226	0.6064
2	220250	226.25	0.6064
2	220270	226.5	0.6064
2	220290	226.75	0.6064
2	220330	227	0.606133333333
2	220350	227.25	0.606133333333
2	220370	227.5	0.606133333333
2	220390	227.75	0.606133333333
2	220430	228	0.605866666667
2	220450	228.25	0.605866666667
2	220470	228.5	0.605866666667
2	220490	228.75	0.605866666667
2	220530	229	0.6056
2	220550	229.25	0.6056
2	220570	229.5	0.6056
2	220590	229.75	0.6056
2	220630	230	0.605333333333
2	220650	230.25	0.605333333333
2	220670	230.5	0.605333333333
2	220690	230.75	0.605333333333
2	220730	231	0.605066666667
2	220750	231.25	0.605066666667
2	220770	231.5	0.605066666667
2	220790	231.75	0.605066666667
2	220830	232	0.6048
2	220850	232.25	0.6048
2	220870	232.5	0.6048
2	220890	232.75	0.6048
2	220930	233	0.604533333333
2	220950	233.25	0.604533333333
2	220970	233.5	0.604533333333
2	220990	233.75	0.604533333333
2	221030	234	0.604266666667
2	221050	234.25	0.604266666667
2	221070	234.5	0.604266666667
2	221090	234.75	0.604266666667
2	221130	235	0.604
2	221150	235.25	0.604
2	221170	235.5	0.604
2	221190	235.75	0.604
2	221230	236	0.603733333333
2	221250	236.25	0.603733333333
2	221270	236.5	0.603733333333
2	221290	236.75	0.603733333333
2	221330	237	0.603466666667
2	221350	237.25	0.603466666667
2	221370	237.5	0.603466666667
2	221390	237.75	0.603466666667
2	221430	238	0.6032
2	221450	238.25	0.6032
2	221470	238.5	0.6032
2	221490	238.75	0.6032
2	221530	239	0.602933333333
2	221550	239.25	0.602933333333
2	221570	239.5	0.602933333333
2	221590	239.75	0.602933333333
2	221630	240	0.602666666667
2	221650	240.25	0.602666666667
2	221670	240.5	0.602666666667
2	221690	240.75	0.602666666667
2	221730	241	0.6024
2	221750	241.25	0.6024
2	221770	241.5	0.6024
2	221790	241.75	0.6024
2	221830	242	0.602133333333
2	221850	242.25	0.602133333333
2	221870	242.5	0.602133333333
2	221890	242.75	0.602133333333
2	221930	243	0.601866666667
2	221950	243.25	0.601866666667
2	221970	243.5	0.601866666667
2	221990	243.75	0.601866666667
2	222030	244	0.6016
2	222050	244.25	0.6016
2	222070	244.5	0.6016
2	222090	244.75	0.6016
2	222130	245	0.601333333333
2	222150	245.25	0.601333333333
2	222170	245.5	0.601333333333
2	222190	245.75	0.601333333333
2	222230	246	0.601066666667
2	222250	246.25	0.601066666667
2	222270	246.5	0.601066666667
2	222290	246.75	0.601066666667
2	222330	247	0.6008
2	222350	247.25	0.6008
2	222370	247.5	0.6008
2	222390	247.75	0.6008
2	222430	248	0.600533333333
2	222450	248.25	0.600533333333
2	222470	248.5	0.600533333333
2	222490	248.75	0.600533333333
2	222530	249	0.600266666667
2	222550	249.25	0.600266666667
2	222570	249.5	0.600266666667
2	222590	249.75	0.600266666667
2	222630	250	0.6
2	222650	250.25	0.6
2	222670	250.5	0.6
2	222690	250.75	0.6
2	222730	251	0.599733333333
2	222750	251.25	0.599733333333
2	222770	251.5	0.599733333333
2	222790	251.75	0.599733333333
2	222830	252	0.599466666667
2	222850	252.25	0.599466666667
2	222870	252.5	0.599466666667
2	222890	252.75	0.599466666667
2	222930	253	0.5992
2	222950	253.25	0.5992
2	222970	253.5	0.5992
2	222990	253.75	0.5992
2	223030	254	0.598933333333
2	223050	254.25	0.598933333333
2	223070	254.5	0.598933333333
2	223090	254.75	0.598933333333
2	223130	255	0.598666666667
2	223150	255.25	0.598666666667
2	223170	255.5	0.598666666667
2	223190	255.75	0.598666666667
2	223230	256	0.5984
2	223250	256.25	0.5984
2	223270	256.5	0.5984
2	223290	256.75	0.5984
2	223330	257	0.598133333333
2	223350	257.25	0.598133333333
2	223370	257.5	0.598133333333
2	223390	257.75	0.598133333333
2	223430	258	0.597866666667
2	223450	258.25	0.597866666667
2	223470	258.5	0.597866666667
2	223490	258.75	0.597866666667
2	223530	259	0.5976
2	223550	259.25	0.5976
2	223570	259.5	0.5976
2	223590	259.75	0.5976
2	223630	260	0.597333333333
2	223650	260.25	0.597333333333
2	223670	260.5	0.597333333333
2	223690	260.75	0.597333333333
2	223730	261	0.597066666667
2	223750	261.25	0.597066666667
2	223770	261.5	0.597066666667
2	223790	261.75	0.597066666667
2	223830	262	0.5968
2	223850	262.25	0.5968
2	223870	262.5	0.5968
2	223890	262.75	0.5968
2	223930	263	0.596533333333
2	223950	263.25	0.596533333333
2	223970	263.5	0.596533333333
2	223990	263.75	0.596533333333
2	224030	264	0.596266666667
2	224050	264.25	0.596266666667