file 14845 1253626582                                           
version 2
run Ten-0-20090826-15:56:42-17500
attr configname Ten
attr datetime 20090826-15:56:42
attr experiment Ten
attr inifile omnetpp.ini
attr iterationvars ""
attr iterationvars2 $repetition=0
attr measurement ""
attr network sim
attr processid 17500
attr repetition 0
attr replication #0
attr resultdir results
attr runnumber 0
attr seedset 0
vector 2  sim.host[0].batteryStats  capacity(relative)  ETV
2	1577 641 0 710007 0 6 25 0.999730003799 1 24.996728028481 24.993456660953
vector 7  sim.host[1].batteryStats  capacity(relative)  ETV
7	2218 640 0 710008 0 6 25 0.999736104377 1 24.996759018973 24.993518627511
vector 12  sim.host[2].batteryStats  capacity(relative)  ETV
12	2858 666 0 710009 0 6 25 0.999735972904 1 24.996759298989 24.99351918683
vector 17  sim.host[3].batteryStats  capacity(relative)  ETV
17	3524 667 0 710010 0 6 25 0.999730156926 1 24.996743062732 24.993486726125
vector 22  sim.host[4].batteryStats  capacity(relative)  ETV
22	4191 665 0 710011 0 6 25 0.999730983251 1 24.996747683362 24.993495965066
vector 27  sim.host[5].batteryStats  capacity(relative)  ETV
27	4856 666 0 710012 0 6 25 0.999732161264 1 24.996766572017 24.993533735548
vector 32  sim.host[6].batteryStats  capacity(relative)  ETV
32	5522 665 0 710013 0 6 25 0.999739460844 1 24.996807568992 24.993615709993
vector 37  sim.host[7].batteryStats  capacity(relative)  ETV
37	6187 666 0 710014 0 6 25 0.999729473557 1 24.996716092392 24.993432793711
vector 42  sim.host[8].batteryStats  capacity(relative)  ETV
42	6853 667 0 710015 0 6 25 0.999738013623 1 24.996781337962 24.993563256504
vector 47  sim.host[9].batteryStats  capacity(relative)  ETV
47	7520 664 0 710016 0 6 25 0.999726182046 1 24.996719582516 24.993439777607
vector 52  sim.host[10].batteryStats  capacity(relative)  ETV
52	8184 665 0 710017 0 6 25 0.999732415245 1 24.996779273248 24.993559133889
vector 57  sim.host[11].batteryStats  capacity(relative)  ETV
57	8849 665 0 710018 0 6 25 0.999730994656 1 24.99675576609 24.993512128695
vector 62  sim.host[12].batteryStats  capacity(relative)  ETV
62	9514 667 0 710019 0 6 25 0.999734839766 1 24.996748857153 24.993498308125
vector 67  sim.host[13].batteryStats  capacity(relative)  ETV
67	10181 666 0 710020 0 6 25 0.999730913195 1 24.996767891973 24.993536376394
vector 72  sim.host[14].batteryStats  capacity(relative)  ETV
72	10847 664 0 710021 0 6 25 0.999729184057 1 24.996741764529 24.993484131436
vector 77  sim.host[15].batteryStats  capacity(relative)  ETV
77	11511 666 0 710022 0 6 25 0.999736519959 1 24.996771251871 24.993543089023
vector 82  sim.host[16].batteryStats  capacity(relative)  ETV
82	12177 667 0 710023 0 6 25 0.999735587789 1 24.996762424772 24.99352543851
vector 87  sim.host[17].batteryStats  capacity(relative)  ETV
87	12844 669 0 710024 0 6 25 0.999724289779 1 24.996672704641 24.993346036693
vector 92  sim.host[18].batteryStats  capacity(relative)  ETV
92	13513 666 0 710025 0 6 25 0.999730794169 1 24.996763743335 24.9935280808
vector 97  sim.host[19].batteryStats  capacity(relative)  ETV
97	14179 666 0 710026 0 6 25 0.999731896971 1 24.996780165858 24.99356091946
