file 13238 1253793440                                           
version 2
run Eight-0-20090924-13:56:49-18898
attr configname Eight
attr datetime 20090924-13:56:49
attr experiment Eight
attr inifile omnetpp.ini
attr iterationvars ""
attr iterationvars2 $repetition=0
attr measurement ""
attr network sim
attr processid 18898
attr repetition 0
attr replication #0
attr resultdir results
attr runnumber 0
attr seedset 0
vector 2  sim.host[0].batteryStats  capacity(relative)  ETV
2	1583 562 0 113875 0 5.5 23 0.66528440228 0.666666666667 15.31751105174 10.201141523499
vector 7  sim.host[1].batteryStats  capacity(relative)  ETV
7	2145 562 0 113876 0 5.5 23 0.66528447108 0.666666666667 15.317578145139 10.201230859365
vector 12  sim.host[2].batteryStats  capacity(relative)  ETV
12	2707 585 0 113877 0 5.5 23 0.66528447108 0.666666666667 15.317578145139 10.201230859365
vector 17  sim.host[3].batteryStats  capacity(relative)  ETV
17	3292 585 0 113878 0 5.5 23 0.66528440228 0.666666666667 15.317557970608 10.20120400529
vector 22  sim.host[4].batteryStats  capacity(relative)  ETV
22	3877 585 0 113879 0 5.5 23 0.66528440228 0.666666666667 15.317557970608 10.20120400529
vector 27  sim.host[5].batteryStats  capacity(relative)  ETV
27	4462 585 0 113880 0 5.5 23 0.66528440228 0.666666666667 15.317557970608 10.20120400529
vector 32  sim.host[6].batteryStats  capacity(relative)  ETV
32	5047 585 0 113881 0 5.5 23 0.66528447108 0.666666666667 15.317681124335 10.201367980271
vector 37  sim.host[7].batteryStats  capacity(relative)  ETV
37	5632 585 0 113882 0 5.5 23 0.66528440228 0.666666666667 15.31751105174 10.201141523499
vector 42  sim.host[8].batteryStats  capacity(relative)  ETV
42	6217 585 0 113883 0 5.5 23 0.66528447108 0.666666666667 15.317580383539 10.201233840131
vector 47  sim.host[9].batteryStats  capacity(relative)  ETV
47	6802 585 0 113884 0 5.5 23 0.66528440228 0.666666666667 15.31750988374 10.201139967889
vector 52  sim.host[10].batteryStats  capacity(relative)  ETV
52	7387 585 0 113885 0 5.5 23 0.66528440228 0.666666666667 15.317600226005 10.201260267508
vector 57  sim.host[11].batteryStats  capacity(relative)  ETV
57	7972 585 0 113886 0 5.5 23 0.66528440228 0.666666666667 15.317557970608 10.20120400529
vector 62  sim.host[12].batteryStats  capacity(relative)  ETV
62	8557 585 0 113887 0 5.5 23 0.66528447108 0.666666666667 15.317578076339 10.201230767762
vector 67  sim.host[13].batteryStats  capacity(relative)  ETV
67	9142 585 0 113888 0 5.5 23 0.66528440228 0.666666666667 15.317600226005 10.201260267508
vector 72  sim.host[14].batteryStats  capacity(relative)  ETV
72	9727 585 0 113889 0 5.5 23 0.66528440228 0.666666666667 15.317554986071 10.201200022027
vector 77  sim.host[15].batteryStats  capacity(relative)  ETV
77	10312 585 0 113890 0 5.5 23 0.66528447108 0.666666666667 15.317578076339 10.201230767762
vector 82  sim.host[16].batteryStats  capacity(relative)  ETV
82	10897 585 0 113891 0 5.5 23 0.66528447108 0.666666666667 15.317578076339 10.201230767762
vector 87  sim.host[17].batteryStats  capacity(relative)  ETV
87	11482 585 0 113892 0 5.5 23 0.66528440228 0.666666666667 15.31750988374 10.201139967889
vector 92  sim.host[18].batteryStats  capacity(relative)  ETV
92	12067 585 0 113893 0 5.5 23 0.66528440228 0.666666666667 15.317600226005 10.201260267508
vector 97  sim.host[19].batteryStats  capacity(relative)  ETV
97	12652 586 0 113894 0 5.5 23 0.66528440228 0.666666666667 15.317600226005 10.201260267508
