version 2
run Two-0-20091217-15:09:05-32002
attr configname Two
attr datetime 20091217-15:09:05
attr experiment Two
attr inifile omnetpp.ini
attr iterationvars ""
attr iterationvars2 $repetition=0
attr measurement ""
attr network sim
attr processid 32002
attr repetition 0
attr replication #0
attr resultdir results
attr runnumber 0
attr seedset 0

vector 2  sim.host[0].batteryStats  capacity(relative)  ETV
vector 7  sim.host[1].batteryStats  capacity(relative)  ETV
2	0	0	0.666666666667
2	0	0	0.666666666667
2	7	1	0.6665
2	9	2	0.666333333333
2	25	3	0.666166666667
2	27	4	0.666
2	34	4.798396001126	0.665866934
2	34	4.798396001126	0.665866934
2	38	4.799252001126	0.665866620133
2	38	4.799252001126	0.665866620133
2	43	5	0.665833162133
2	45	6	0.665666495467
2	47	7	0.6654998288
2	49	8	0.665333162133
2	51	9	0.665166495467
2	53	10	0.6649998288
2	54	10	0.6649998288
7	0	0	0.666666666667
7	0	0	0.666666666667
7	8	1	0.6665
7	10	2	0.666333333333
7	16	2.880054674599	0.666186657554
7	16	2.880054674599	0.666186657554
7	20	2.880910674599	0.666186343688
7	20	2.880910674599	0.666186343688
7	26	3	0.666166495467
7	28	4	0.6659998288
7	44	5	0.665833162133
7	46	6	0.665666495467
7	48	7	0.6654998288
7	50	8	0.665333162133
7	52	9	0.665166495467
7	54	10	0.6649998288
