version 2
run Ten-0-20110329-15:18:29-9097
attr configname Ten
attr datetime 20110329-15:18:29
attr experiment Ten
attr inifile omnetpp.ini
attr iterationvars ""
attr iterationvars2 $repetition=0
attr measurement ""
attr network sim
attr processid 9097
attr repetition 0
attr replication #0
attr resultdir results
attr runnumber 0
attr seedset 0

vector 2  sim.host[0].batteryStats  capacity(relative)  ETV
vector 8  sim.host[1].batteryStats  capacity(relative)  ETV
vector 14  sim.host[2].batteryStats  capacity(relative)  ETV
vector 20  sim.host[3].batteryStats  capacity(relative)  ETV
vector 26  sim.host[4].batteryStats  capacity(relative)  ETV
vector 32  sim.host[5].batteryStats  capacity(relative)  ETV
vector 38  sim.host[6].batteryStats  capacity(relative)  ETV
vector 44  sim.host[7].batteryStats  capacity(relative)  ETV
vector 50  sim.host[8].batteryStats  capacity(relative)  ETV
vector 56  sim.host[9].batteryStats  capacity(relative)  ETV
vector 62  sim.host[10].batteryStats  capacity(relative)  ETV
vector 68  sim.host[11].batteryStats  capacity(relative)  ETV
vector 74  sim.host[12].batteryStats  capacity(relative)  ETV
vector 80  sim.host[13].batteryStats  capacity(relative)  ETV
vector 86  sim.host[14].batteryStats  capacity(relative)  ETV
vector 92  sim.host[15].batteryStats  capacity(relative)  ETV
vector 98  sim.host[16].batteryStats  capacity(relative)  ETV
vector 104  sim.host[17].batteryStats  capacity(relative)  ETV
vector 110  sim.host[18].batteryStats  capacity(relative)  ETV
vector 116  sim.host[19].batteryStats  capacity(relative)  ETV
2	0	0	1
2	61	0.25	1
2	81	0.5	1
2	29005	0.75	0.999967855239
2	66257	1	0.999956277431
2	101061	1.25	0.999944519497
2	114980	1.5	0.999939416856
2	115000	1.75	0.999939416856
2	125815	2	0.999912279741
2	125835	2.25	0.999912279741
2	145213	2.5	0.999890642588
2	182792	2.75	0.999879004561
2	234740	3	0.999867575751
2	285937	3.25	0.999856595387
2	336632	3.5	0.999845364852
2	389410	3.75	0.999833748586
2	431131	4	0.999822192816
2	462726	4.25	0.99981067397
2	494058	4.5	0.999799240851
2	525243	4.75	0.99978765745
2	561806	5	0.999776040144
2	611756	5.25	0.999764233717
2	644902	5.5	0.999752775754
2	680325	5.75	0.999741351346
2	724188	6	0.999729716016
2	769519	6.25	0.999718151923
2	812180	6.5	0.999706517211
2	840533	6.75	0.999695271302
2	857762	7	0.999684222672
2	885042	7.25	0.999672550627
2	912866	7.5	0.999660897861
2	941944	7.75	0.999649253776
2	984660	8	0.999637530926
2	1023758	8.25	0.999626374444
2	1050964	8.5	0.999615084937
2	1072920	8.75	0.999604421232
2	1099659	9	0.999593519173
2	1123177	9.25	0.999582625565
2	1124423	9.5	0.999581733449
2	1161057	9.75	0.999560660963
2	1199842	10	0.99954911848
2	1230444	10.25	0.999537457924
2	1246529	10.5	0.999529948373
2	1246549	10.75	0.999529948373
2	1246589	11	0.999505552042
2	1246609	11.25	0.999505552042
2	1246629	11.5	0.999505552042
2	1246649	11.75	0.999505552042
2	1246689	12	0.999464006148
2	1246709	12.25	0.999464006148
2	1246729	12.5	0.999464006148
2	1246749	12.75	0.999464006148
2	1246789	13	0.999422460255
2	1246809	13.25	0.999422460255
2	1246829	13.5	0.999422460255
2	1246849	13.75	0.999422460255
2	1246889	14	0.999380914361
2	1246909	14.25	0.999380914361
2	1246929	14.5	0.999380914361
2	1246949	14.75	0.999380914361
8	0	0	1
8	62	0.25	1
8	82	0.5	1
8	29006	0.75	0.999967885022
8	66258	1	0.999956227467
8	101062	1.25	0.999944692342
8	114981	1.5	0.999940020603
8	115001	1.75	0.999940020603
8	125816	2	0.999912526682
8	125836	2.25	0.999912526682
8	145214	2.5	0.999890896567
8	182793	2.75	0.999879200899
8	234741	3	0.999867535768
8	285938	3.25	0.999855839652
8	336633	3.5	0.99984422308
8	389411	3.75	0.999832866429
8	431132	4	0.999821630707
8	462727	4.25	0.999811035946
8	494059	4.5	0.999800495954
8	525244	4.75	0.999789807378
8	561807	5	0.999779155972
8	611757	5.25	0.999768309901
8	644903	5.5	0.999757722952
8	680326	5.75	0.999746886177
8	724189	6	0.999735613808
8	769520	6.25	0.999724327599
8	812181	6.5	0.999713094493
8	840534	6.75	0.99970223612
8	857763	7	0.999691209733
8	885043	7.25	0.999679391465
8	912867	7.5	0.999667689129
8	941945	7.75	0.999656087003
8	984661	8	0.99964440374
8	1023759	8.25	0.999634823812
8	1050965	8.5	0.999622686523
8	1072921	8.75	0.999622445122
8	1099660	9	0.999601853358
8	1123178	9.25	0.999601853358
8	1124424	9.5	0.999601853358
8	1161058	9.75	0.999569630457
8	1199843	10	0.999558153561
8	1230445	10.25	0.999546906853
8	1246530	10.5	0.999539867569
8	1246550	10.75	0.999539867569
8	1246590	11	0.999515471238
8	1246610	11.25	0.999515471238
8	1246630	11.5	0.999515471238
8	1246650	11.75	0.999515471238
8	1246690	12	0.999473925345
8	1246710	12.25	0.999473925345
8	1246730	12.5	0.999473925345
8	1246750	12.75	0.999473925345
8	1246790	13	0.999432379451
8	1246810	13.25	0.999432379451
8	1246830	13.5	0.999432379451
8	1246850	13.75	0.999432379451
8	1246890	14	0.999390833557
8	1246910	14.25	0.999390833557
8	1246930	14.5	0.999390833557
8	1246950	14.75	0.999390833557
14	0	0	1
14	63	0.25	1
14	83	0.5	1
14	29007	0.75	0.999967701384
14	66259	1	0.999955823496
14	101063	1.25	0.999944099826
14	114982	1.5	0.999939428087
14	115002	1.75	0.999939428087
14	125817	2	0.999912453936
14	125837	2.25	0.999912453936
14	145215	2.5	0.999890800028
14	182794	2.75	0.999879111106
14	234742	3	0.999867446054
14	285939	3.25	0.99985575255
14	336634	3.5	0.999844359196
14	389412	3.75	0.999833374502
14	431133	4	0.999822378095
14	462728	4.25	0.999811783334
14	494060	4.5	0.999801243341
14	525245	4.75	0.999790554766
14	561808	5	0.999779718266
14	611758	5.25	0.99976839461
14	644904	5.5	0.999757775964
14	680327	5.75	0.99974693919
14	724190	6	0.99973566682
14	769521	6.25	0.99972436826
14	812182	6.5	0.999713135153
14	840535	6.75	0.999702237364
14	857764	7	0.999691194676
14	885044	7.25	0.99967937332
14	912868	7.5	0.99966765509
14	941946	7.75	0.999656033529
14	984662	8	0.999644370109
14	1023760	8.25	0.999634790182
14	1050966	8.5	0.999622652892
14	1072922	8.75	0.999612711313
14	1099661	9	0.999601530908
14	1123179	9.25	0.999594676699
14	1124425	9.5	0.999594676699
14	1161059	9.75	0.999569160399
14	1199844	10	0.999557623924
14	1230446	10.25	0.999546304832
14	1246531	10.5	0.999539004619
14	1246551	10.75	0.999539004619
14	1246591	11	0.999514608288
14	1246611	11.25	0.999514608288
14	1246631	11.5	0.999514608288
14	1246651	11.75	0.999514608288
14	1246691	12	0.999473062394
14	1246711	12.25	0.999473062394
14	1246731	12.5	0.999473062394
14	1246751	12.75	0.999473062394
14	1246791	13	0.9994315165
14	1246811	13.25	0.9994315165
14	1246831	13.5	0.9994315165
14	1246851	13.75	0.9994315165
14	1246891	14	0.999389970607
14	1246911	14.25	0.999389970607
14	1246931	14.5	0.999389970607
14	1246951	14.75	0.999389970607
20	0	0	1
20	64	0.25	1
20	84	0.5	1
20	29008	0.75	0.999968044935
20	66260	1	0.999956580795
20	101064	1.25	0.99994526514
20	114983	1.5	0.999940162498
20	115003	1.75	0.999940162498
20	125818	2	0.999913478632
20	125838	2.25	0.999913478632
20	145216	2.5	0.999892602944
20	182795	2.75	0.999881156752
20	234743	3	0.999869436029
20	285940	3.25	0.999857733742
20	336635	3.5	0.999846121249
20	389413	3.75	0.999834436369
20	431134	4	0.999822752484
20	462729	4.25	0.999811063031
20	494061	4.5	0.999799376655
20	525246	4.75	0.999787733538
20	561809	5	0.999776057431
20	611759	5.25	0.999764404819
20	644905	5.5	0.999752714859
20	680328	5.75	0.999741151188
20	724191	6	0.99972981678
20	769522	6.25	0.999718533802
20	812183	6.5	0.999707247517
20	840536	6.75	0.999695799814
20	857765	7	0.999684836664
20	885045	7.25	0.999673936182
20	912869	7.5	0.999663003801
20	941947	7.75	0.999652574412
20	984663	8	0.999640812032
20	1023761	8.25	0.999629189339
20	1050967	8.5	0.999617595117
20	1072923	8.75	0.999606085071
20	1099662	9	0.999594361602
20	1123180	9.25	0.999583085362
20	1124426	9.5	0.999582266523
20	1161060	9.75	0.999561035143
20	1199845	10	0.999549278044
20	1230447	10.25	0.999538285095
20	1246532	10.5	0.999531358744
20	1246552	10.75	0.999531358744
20	1246592	11	0.999506926434
20	1246612	11.25	0.999506926434
20	1246632	11.5	0.999506926434
20	1246652	11.75	0.999506926434
20	1246692	12	0.999465380541
20	1246712	12.25	0.999465380541
20	1246732	12.5	0.999465380541
20	1246752	12.75	0.999465380541
20	1246792	13	0.999423834647
20	1246812	13.25	0.999423834647
20	1246832	13.5	0.999423834647
20	1246852	13.75	0.999423834647
20	1246892	14	0.999382288753
20	1246912	14.25	0.999382288753
20	1246932	14.5	0.999382288753
20	1246952	14.75	0.999382288753
26	0	0	1
26	65	0.25	1
26	85	0.5	1
26	29009	0.75	0.999968044935
26	66261	1	0.999956593147
26	101065	1.25	0.999945277492
26	114984	1.5	0.99994017485
26	115004	1.75	0.99994017485
26	125819	2	0.999913490984
26	125839	2.25	0.999913490984
26	145217	2.5	0.999892615295
26	182796	2.75	0.999881169966
26	234744	3	0.999869413733
26	285941	3.25	0.999857715781
26	336636	3.5	0.999846028431
26	389414	3.75	0.999834258247
26	431135	4	0.999822716088
26	462730	4.25	0.999810978091
26	494062	4.5	0.999799221511
26	525247	4.75	0.999787829788
26	561810	5	0.999776732762
26	611760	5.25	0.999765608316
26	644906	5.5	0.99975413333
26	680329	5.75	0.999742470981
26	724192	6	0.999730895195
26	769523	6.25	0.999719340115
26	812184	6.5	0.999707752757
26	840537	6.75	0.999696009977
26	857766	7	0.999684965179
26	885046	7.25	0.999674064696
26	912870	7.5	0.999663132315
26	941948	7.75	0.999652702926
26	984664	8	0.999640874407
26	1023762	8.25	0.999629139095
26	1050968	8.5	0.999617746224
26	1072924	8.75	0.999606197676
26	1099663	9	0.999594565912
26	1123181	9.25	0.999583042917
26	1124427	9.5	0.999582121632
26	1161061	9.75	0.999561008138
26	1199846	10	0.999549219659
26	1230448	10.25	0.999538348592
26	1246533	10.5	0.999531336597
26	1246553	10.75	0.999531336597
26	1246593	11	0.999506904288
26	1246613	11.25	0.999506904288
26	1246633	11.5	0.999506904288
26	1246653	11.75	0.999506904288
26	1246693	12	0.999465358394
26	1246713	12.25	0.999465358394
26	1246733	12.5	0.999465358394
26	1246753	12.75	0.999465358394
26	1246793	13	0.9994238125
26	1246813	13.25	0.9994238125
26	1246833	13.5	0.9994238125
26	1246853	13.75	0.9994238125
26	1246893	14	0.999382266606
26	1246913	14.25	0.999382266606
26	1246933	14.5	0.999382266606
26	1246953	14.75	0.999382266606
32	0	0	1
32	66	0.25	1
32	86	0.5	1
32	29010	0.75	0.999968085532
32	66262	1	0.99995670304
32	101066	1.25	0.999945555586
32	114985	1.5	0.999940724954
32	115005	1.75	0.999940724954
32	125820	2	0.999914041088
32	125840	2.25	0.999914041088
32	145218	2.5	0.9998931654
32	182797	2.75	0.999881738644
32	234745	3	0.99986986194
32	285942	3.25	0.999858118941
32	336637	3.5	0.999846490259
32	389415	3.75	0.999834768211
32	431136	4	0.999823443788
32	462731	4.25	0.999812459434
32	494063	4.5	0.999801437577
32	525248	4.75	0.999790100255
32	561811	5	0.999778520849
32	611761	5.25	0.999766866239
32	644907	5.5	0.999755280724
32	680330	5.75	0.999743552212
32	724193	6	0.999732042728
32	769524	6.25	0.99972048665
32	812185	6.5	0.999708653167
32	840538	6.75	0.999696859163
32	857767	7	0.999685814365
32	885047	7.25	0.999674913883
32	912871	7.5	0.999663981502
32	941949	7.75	0.999653552112
32	984665	8	0.999641810146
32	1023763	8.25	0.99963009427
32	1050969	8.5	0.999618554813
32	1072925	8.75	0.999607124198
32	1099664	9	0.999595439392
32	1123182	9.25	0.999583845331
32	1124428	9.5	0.999582924046
32	1161062	9.75	0.999561841524
32	1199847	10	0.999550301669
32	1230449	10.25	0.999539307903
32	1246534	10.5	0.999532142692
32	1246554	10.75	0.999532142692
32	1246594	11	0.999507710382
32	1246614	11.25	0.999507710382
32	1246634	11.5	0.999507710382
32	1246654	11.75	0.999507710382
32	1246694	12	0.999466164489
32	1246714	12.25	0.999466164489
32	1246734	12.5	0.999466164489
32	1246754	12.75	0.999466164489
32	1246794	13	0.999424618595
32	1246814	13.25	0.999424618595
32	1246834	13.5	0.999424618595
32	1246854	13.75	0.999424618595
32	1246894	14	0.999383072701
32	1246914	14.25	0.999383072701
32	1246934	14.5	0.999383072701
32	1246954	14.75	0.999383072701
38	0	0	1
38	67	0.25	1
38	87	0.5	1
38	29011	0.75	0.999967935749
38	66263	1	0.999956511106
38	101067	1.25	0.999945138369
38	114986	1.5	0.99994046663
38	115006	1.75	0.99994046663
38	125821	2	0.999913653414
38	125841	2.25	0.999913653414
38	145219	2.5	0.999892135601
38	182798	2.75	0.999880624915
38	234746	3	0.999869301785
38	285943	3.25	0.999858390701
38	336638	3.5	0.999847250168
38	389416	3.75	0.999836143573
38	431137	4	0.999825239542
38	462732	4.25	0.999814644781
38	494064	4.5	0.999804104789
38	525249	4.75	0.999793416213
38	561812	5	0.999782433673
38	611762	5.25	0.999770717422
38	644908	5.5	0.99976010398
38	680331	5.75	0.999749468805
38	724194	6	0.999738693219
38	769525	6.25	0.999728196863
38	812186	6.5	0.999717230209
38	840539	6.75	0.999706405805
38	857768	7	0.999695756848
38	885048	7.25	0.999684771218
38	912872	7.5	0.99967377903
38	941950	7.75	0.999662174669
38	984666	8	0.999650601748
38	1023764	8.25	0.999641341965
38	1050970	8.5	0.999629204676
38	1072926	8.75	0.999619263096
38	1099665	9	0.999608082692
38	1123183	9.25	0.999601228483
38	1124429	9.5	0.999601228483
38	1161063	9.75	0.99957608768
38	1199848	10	0.999564910092
38	1230450	10.25	0.999553830799
38	1246535	10.5	0.999546545844
38	1246555	10.75	0.999546545844
38	1246595	11	0.999522149513
38	1246615	11.25	0.999522149513
38	1246635	11.5	0.999522149513
38	1246655	11.75	0.999522149513
38	1246695	12	0.999480603619
38	1246715	12.25	0.999480603619
38	1246735	12.5	0.999480603619
38	1246755	12.75	0.999480603619
38	1246795	13	0.999439057725
38	1246815	13.25	0.999439057725
38	1246835	13.5	0.999439057725
38	1246855	13.75	0.999439057725
38	1246895	14	0.999397511832
38	1246915	14.25	0.999397511832
38	1246935	14.5	0.999397511832
38	1246955	14.75	0.999397511832
44	0	0	1
44	68	0.25	1
44	88	0.5	1
44	29012	0.75	0.999967845929
44	66264	1	0.999956214787
44	101068	1.25	0.999944536777
44	114987	1.5	0.999939434135
44	115007	1.75	0.999939434135
44	125822	2	0.99991229702
44	125842	2.25	0.99991229702
44	145220	2.5	0.999890672673
44	182799	2.75	0.999879010304
44	234747	3	0.99986741184
44	285944	3.25	0.999855790187
44	336639	3.5	0.999844163127
44	389417	3.75	0.999832469571
44	431138	4	0.999820934327
44	462733	4.25	0.999809415481
44	494065	4.5	0.999797982362
44	525250	4.75	0.999786398961
44	561813	5	0.999774781655
44	611763	5.25	0.999762975228
44	644909	5.5	0.999751520807
44	680332	5.75	0.999740229907
44	724195	6	0.99972887645
44	769526	6.25	0.999717678265
44	812187	6.5	0.999706353708
44	840540	6.75	0.999695231679
44	857769	7	0.999684327909
44	885049	7.25	0.999672658951
44	912873	7.5	0.999660983662
44	941951	7.75	0.999649244168
44	984667	8	0.999637520865
44	1023765	8.25	0.999626527316
44	1050971	8.5	0.999615237808
44	1072927	8.75	0.999604574103
44	1099666	9	0.999593672044
44	1123184	9.25	0.999582778436
44	1124430	9.5	0.99958188632
44	1161064	9.75	0.999560878272
44	1199849	10	0.999549290741
44	1230451	10.25	0.999537630185
44	1246536	10.5	0.999530120634
44	1246556	10.75	0.999530120634
44	1246596	11	0.999505724303
44	1246616	11.25	0.999505724303
44	1246636	11.5	0.999505724303
44	1246656	11.75	0.999505724303
44	1246696	12	0.999464178409
44	1246716	12.25	0.999464178409
44	1246736	12.5	0.999464178409
44	1246756	12.75	0.999464178409
44	1246796	13	0.999422632516
44	1246816	13.25	0.999422632516
44	1246836	13.5	0.999422632516
44	1246856	13.75	0.999422632516
44	1246896	14	0.999381086622
44	1246916	14.25	0.999381086622
44	1246936	14.5	0.999381086622
44	1246956	14.75	0.999381086622
50	0	0	1
50	69	0.25	1
50	89	0.5	1
50	29013	0.75	0.999967804217
50	66265	1	0.999956048984
50	101069	1.25	0.99994443212
50	114988	1.5	0.99993976038
50	115008	1.75	0.99993976038
50	125823	2	0.999913076514
50	125843	2.25	0.999913076514
50	145221	2.5	0.99989144836
50	182800	2.75	0.999879769691
50	234748	3	0.999868154976
50	285945	3.25	0.999856593304
50	336640	3.5	0.999845232559
50	389418	3.75	0.999834608744
50	431139	4	0.999823661107
50	462734	4.25	0.999813066347
50	494066	4.5	0.999802526354
50	525251	4.75	0.999791837778
50	561814	5	0.999781139134
50	611764	5.25	0.999770195694
50	644910	5.5	0.999759599837
50	680333	5.75	0.99974879846
50	724196	6	0.999737593719
50	769527	6.25	0.999726447912
50	812188	6.5	0.999715279648
50	840541	6.75	0.999704405341
50	857770	7	0.999693427689
50	885050	7.25	0.999681700308
50	912874	7.5	0.99967011817
50	941952	7.75	0.999658546234
50	984668	8	0.999646909035
50	1023766	8.25	0.999637336301
50	1050972	8.5	0.999625199012
50	1072928	8.75	0.999624957611
50	1099667	9	0.999604365847
50	1123185	9.25	0.999604365847
50	1124431	9.5	0.999604365847
50	1161065	9.75	0.99957212844
50	1199850	10	0.999560619072
50	1230452	10.25	0.999549336069
50	1246537	10.5	0.999542223764
50	1246557	10.75	0.999542223764
50	1246597	11	0.999517791455
50	1246617	11.25	0.999517791455
50	1246637	11.5	0.999517791455
50	1246657	11.75	0.999517791455
50	1246697	12	0.999476245561
50	1246717	12.25	0.999476245561
50	1246737	12.5	0.999476245561
50	1246757	12.75	0.999476245561
50	1246797	13	0.999434699667
50	1246817	13.25	0.999434699667
50	1246837	13.5	0.999434699667
50	1246857	13.75	0.999434699667
50	1246897	14	0.999393153774
50	1246917	14.25	0.999393153774
50	1246937	14.5	0.999393153774
50	1246957	14.75	0.999393153774
56	0	0	1
56	70	0.25	1
56	90	0.5	1
56	29014	0.75	0.999968373465
56	66266	1	0.999957398144
56	101070	1.25	0.99994631583
56	114989	1.5	0.99994152852
56	115009	1.75	0.99994152852
56	125824	2	0.999913914079
56	125844	2.25	0.999913914079
56	145222	2.5	0.999892263259
56	182801	2.75	0.999880476084
56	234749	3	0.999868591036
56	285946	3.25	0.999856790083
56	336641	3.5	0.999844971366
56	389419	3.75	0.999833018763
56	431140	4	0.999821158901
56	462735	4.25	0.999809372316
56	494067	4.5	0.999797596754
56	525252	4.75	0.999785857774
56	561815	5	0.999773972067
56	611765	5.25	0.999762056355
56	644911	5.5	0.999750267386
56	680334	5.75	0.999738409739
56	724197	6	0.999726486534
56	769528	6.25	0.999714618658
56	812189	6.5	0.999702722622
56	840542	6.75	0.999691349797
56	857771	7	0.999680446842
56	885051	7.25	0.999668809102
56	912875	7.5	0.999657085678
56	941953	7.75	0.999645509571
56	984669	8	0.999633656511
56	1023767	8.25	0.999621839814
56	1050973	8.5	0.99961003005
56	1072929	8.75	0.999598389697
56	1099668	9	0.999586482836
56	1123186	9.25	0.999574738647
56	1124432	9.5	0.999573817362
56	1161066	9.75	0.999552718426
56	1199851	10	0.999541282339
56	1230453	10.25	0.999529614154
56	1246538	10.5	0.999522102763
56	1246558	10.75	0.999522102763
56	1246598	11	0.999497706432
56	1246618	11.25	0.999497706432
56	1246638	11.5	0.999497706432
56	1246658	11.75	0.999497706432
56	1246698	12	0.999456160539
56	1246718	12.25	0.999456160539
56	1246738	12.5	0.999456160539
56	1246758	12.75	0.999456160539
56	1246798	13	0.999414614645
56	1246818	13.25	0.999414614645
56	1246838	13.5	0.999414614645
56	1246858	13.75	0.999414614645
56	1246898	14	0.999373068751
56	1246918	14.25	0.999373068751
56	1246938	14.5	0.999373068751
56	1246958	14.75	0.999373068751
62	0	0	1
62	71	0.25	1
62	91	0.5	1
62	29015	0.75	0.999968275645
62	66267	1	0.999957158758
62	101071	1.25	0.999945995683
62	114990	1.5	0.999940893041
62	115010	1.75	0.999940893041
62	125825	2	0.999914209175
62	125845	2.25	0.999914209175
62	145223	2.5	0.99989353157
62	182802	2.75	0.999882283943
62	234750	3	0.999870608224
62	285947	3.25	0.999858980879
62	336642	3.5	0.999847777473
62	389420	3.75	0.999836767942
62	431141	4	0.999825547635
62	462736	4.25	0.999813799921
62	494068	4.5	0.999802110866
62	525253	4.75	0.999790374974
62	561816	5	0.999778676343
62	611766	5.25	0.999766943762
62	644912	5.5	0.999755390921
62	680335	5.75	0.999743763513
62	724198	6	0.999732293308
62	769529	6.25	0.999720595614
62	812190	6.5	0.999708921681
62	840543	6.75	0.999697252089
62	857772	7	0.999686430912
62	885052	7.25	0.99967583007
62	912876	7.5	0.99966543088
62	941954	7.75	0.999654946816
62	984670	8	0.999643283916
62	1023768	8.25	0.999631760885
62	1050974	8.5	0.999620137963
62	1072930	8.75	0.999608688366
62	1099669	9	0.999597060552
62	1123187	9.25	0.999585479296
62	1124433	9.5	0.999584558011
62	1161067	9.75	0.999563622136
62	1199852	10	0.999552128621
62	1230454	10.25	0.999540965292
62	1246539	10.5	0.999533800081
62	1246559	10.75	0.999533800081
62	1246599	11	0.999509367772
62	1246619	11.25	0.999509367772
62	1246639	11.5	0.999509367772
62	1246659	11.75	0.999509367772
62	1246699	12	0.999467821878
62	1246719	12.25	0.999467821878
62	1246739	12.5	0.999467821878
62	1246759	12.75	0.999467821878
62	1246799	13	0.999426275984
62	1246819	13.25	0.999426275984
62	1246839	13.5	0.999426275984
62	1246859	13.75	0.999426275984
62	1246899	14	0.99938473009
62	1246919	14.25	0.99938473009
62	1246939	14.5	0.99938473009
62	1246959	14.75	0.99938473009
68	0	0	1
68	72	0.25	1
68	92	0.5	1
68	29016	0.75	0.999968104968
68	66268	1	0.999956696864
68	101072	1.25	0.999945485836
68	114991	1.5	0.999940840661
68	115011	1.75	0.999940840661
68	125826	2	0.999914156794
68	125846	2.25	0.999914156794
68	145224	2.5	0.999893281106
68	182803	2.75	0.99988184772
68	234751	3	0.999870171411
68	285948	3.25	0.99985842142
68	336643	3.5	0.999846692926
68	389421	3.75	0.999834983683
68	431142	4	0.999823377087
68	462737	4.25	0.999811697351
68	494069	4.5	0.999799931053
68	525254	4.75	0.999788252607
68	561817	5	0.999776544258
68	611767	5.25	0.999764935487
68	644913	5.5	0.999753672119
68	680336	5.75	0.999742449006
68	724199	6	0.999730989473
68	769530	6.25	0.999719721661
68	812191	6.5	0.99970836399
68	840544	6.75	0.999696795223
68	857773	7	0.999685756056
68	885053	7.25	0.999674855573
68	912877	7.5	0.999663923193
68	941955	7.75	0.999653493803
68	984671	8	0.999641761554
68	1023769	8.25	0.999630176825
68	1050975	8.5	0.999618512398
68	1072931	8.75	0.999607110482
68	1099670	9	0.999595416345
68	1123188	9.25	0.999583819196
68	1124434	9.5	0.99958289791
68	1161068	9.75	0.999561898399
68	1199853	10	0.999550383702
68	1230455	10.25	0.999539313101
68	1246540	10.5	0.99953214789
68	1246560	10.75	0.99953214789
68	1246600	11	0.99950771558
68	1246620	11.25	0.99950771558
68	1246640	11.5	0.99950771558
68	1246660	11.75	0.99950771558
68	1246700	12	0.999466169687
68	1246720	12.25	0.999466169687
68	1246740	12.5	0.999466169687
68	1246760	12.75	0.999466169687
68	1246800	13	0.999424623793
68	1246820	13.25	0.999424623793
68	1246840	13.5	0.999424623793
68	1246860	13.75	0.999424623793
68	1246900	14	0.999383077899
68	1246920	14.25	0.999383077899
68	1246940	14.5	0.999383077899
68	1246960	14.75	0.999383077899
74	0	0	1
74	73	0.25	1
74	93	0.5	1
74	29017	0.75	0.999967893017
74	66269	1	0.999956238549
74	101073	1.25	0.999944677812
74	114992	1.5	0.999940006073
74	115012	1.75	0.999940006073
74	125827	2	0.999912391633
74	125847	2.25	0.999912391633
74	145225	2.5	0.99989074785
74	182804	2.75	0.999879101295
74	234752	3	0.999867488023
74	285949	3.25	0.999855854877
74	336644	3.5	0.999844282721
74	389422	3.75	0.999832501082
74	431143	4	0.999821526752
74	462738	4.25	0.999810931991
74	494070	4.5	0.999800391998
74	525255	4.75	0.999789703423
74	561818	5	0.999778872058
74	611768	5.25	0.99976751148
74	644914	5.5	0.99975691227
74	680337	5.75	0.999746094545
74	724200	6	0.999734953833
74	769531	6.25	0.999723572503
74	812192	6.5	0.999712549463
74	840545	6.75	0.999701705984
74	857774	7	0.999690600274
74	885054	7.25	0.999678970142
74	912878	7.5	0.999667337811
74	941956	7.75	0.999656307567
74	984672	8	0.999645284302
74	1023770	8.25	0.999636076742
74	1050976	8.5	0.999624049256
74	1072932	8.75	0.999623821932
74	1099671	9	0.999603230168
74	1123189	9.25	0.999603230168
74	1124435	9.5	0.999603230168
74	1161069	9.75	0.999571042142
74	1199854	10	0.999559540088
74	1230456	10.25	0.999548658119
74	1246541	10.5	0.999541437828
74	1246561	10.75	0.999541437828
74	1246601	11	0.999517041497
74	1246621	11.25	0.999517041497
74	1246641	11.5	0.999517041497
74	1246661	11.75	0.999517041497
74	1246701	12	0.999475495604
74	1246721	12.25	0.999475495604
74	1246741	12.5	0.999475495604
74	1246761	12.75	0.999475495604
74	1246801	13	0.99943394971
74	1246821	13.25	0.99943394971
74	1246841	13.5	0.99943394971
74	1246861	13.75	0.99943394971
74	1246901	14	0.999392403816
74	1246921	14.25	0.999392403816
74	1246941	14.5	0.999392403816
74	1246961	14.75	0.999392403816
80	0	0	1
80	74	0.25	1
80	94	0.5	1
80	29018	0.75	0.999968275645
80	66270	1	0.999957158758
80	101074	1.25	0.999945995683
80	114993	1.5	0.999940893041
80	115013	1.75	0.999940893041
80	125828	2	0.999914209175
80	125848	2.25	0.999914209175
80	145226	2.5	0.99989353157
80	182805	2.75	0.999882318818
80	234753	3	0.999870722568
80	285950	3.25	0.999859231683
80	336645	3.5	0.999847763531
80	389423	3.75	0.999836057946
80	431144	4	0.999824456418
80	462739	4.25	0.999812744441
80	494071	4.5	0.999801023191
80	525256	4.75	0.99978926128
80	561819	5	0.999777610737
80	611769	5.25	0.999765898569
80	644915	5.5	0.999754243236
80	680338	5.75	0.999742549234
80	724201	6	0.99973084235
80	769532	6.25	0.999719201601
80	812193	6.5	0.999707387258
80	840546	6.75	0.999695954346
80	857775	7	0.999685357043
80	885055	7.25	0.999674756201
80	912879	7.5	0.999664357011
80	941957	7.75	0.999653872947
80	984673	8	0.999642275631
80	1023771	8.25	0.999630653051
80	1050977	8.5	0.99961910651
80	1072933	8.75	0.999608204111
80	1099672	9	0.999597186974
80	1123190	9.25	0.999586204191
80	1124436	9.5	0.999585313876
80	1161070	9.75	0.999564378001
80	1199855	10	0.999552884486
80	1230457	10.25	0.999541721157
80	1246542	10.5	0.999534555946
80	1246562	10.75	0.999534555946
80	1246602	11	0.999510123636
80	1246622	11.25	0.999510123636
80	1246642	11.5	0.999510123636
80	1246662	11.75	0.999510123636
80	1246702	12	0.999468577743
80	1246722	12.25	0.999468577743
80	1246742	12.5	0.999468577743
80	1246762	12.75	0.999468577743
80	1246802	13	0.999427031849
80	1246822	13.25	0.999427031849
80	1246842	13.5	0.999427031849
80	1246862	13.75	0.999427031849
80	1246902	14	0.999385485955
80	1246922	14.25	0.999385485955
80	1246942	14.5	0.999385485955
80	1246962	14.75	0.999385485955
86	0	0	1
86	75	0.25	1
86	95	0.5	1
86	29019	0.75	0.999968260387
86	66271	1	0.9999571435
86	101075	1.25	0.999945980425
86	114994	1.5	0.999940877783
86	115014	1.75	0.999940877783
86	125829	2	0.999913335142
86	125849	2.25	0.999913335142
86	145227	2.5	0.999892422534
86	182806	2.75	0.999881186103
86	234754	3	0.999869540541
86	285951	3.25	0.999858001715
86	336646	3.5	0.999846448414
86	389424	3.75	0.999834609175
86	431145	4	0.999822823036
86	462740	4.25	0.999811027436
86	494072	4.5	0.999799232076
86	525257	4.75	0.999787464281
86	561820	5	0.999775668505
86	611770	5.25	0.999763883136
86	644916	5.5	0.999752114382
86	680339	5.75	0.99974041986
86	724202	6	0.999728933988
86	769533	6.25	0.999717542578
86	812194	6.5	0.999706045076
86	840547	6.75	0.999694517762
86	857776	7	0.999683745227
86	885056	7.25	0.999673144385
86	912880	7.5	0.9996625031
86	941958	7.75	0.999651709042
86	984674	8	0.999640305444
86	1023772	8.25	0.999628567049
86	1050978	8.5	0.999616891088
86	1072934	8.75	0.999605447666
86	1099673	9	0.999593852322
86	1123191	9.25	0.999582509435
86	1124437	9.5	0.999581648766
86	1161071	9.75	0.999560714731
86	1199856	10	0.999549249622
86	1230458	10.25	0.999538177733
86	1246543	10.5	0.999531151467
86	1246563	10.75	0.999531151467
86	1246603	11	0.999506719157
86	1246623	11.25	0.999506719157
86	1246643	11.5	0.999506719157
86	1246663	11.75	0.999506719157
86	1246703	12	0.999465173264
86	1246723	12.25	0.999465173264
86	1246743	12.5	0.999465173264
86	1246763	12.75	0.999465173264
86	1246803	13	0.99942362737
86	1246823	13.25	0.99942362737
86	1246843	13.5	0.99942362737
86	1246863	13.75	0.99942362737
86	1246903	14	0.999382081476
86	1246923	14.25	0.999382081476
86	1246943	14.5	0.999382081476
86	1246963	14.75	0.999382081476
92	0	0	1
92	76	0.25	1
92	96	0.5	1
92	29020	0.75	0.999967890336
92	66272	1	0.999956185508
92	101076	1.25	0.999944708643
92	114995	1.5	0.999940036904
92	115015	1.75	0.999940036904
92	125830	2	0.999912422464
92	125850	2.25	0.999912422464
92	145228	2.5	0.999891263804
92	182807	2.75	0.999880252499
92	234755	3	0.999869019677
92	285952	3.25	0.99985744125
92	336647	3.5	0.999845979169
92	389425	3.75	0.999834268597
92	431146	4	0.999823016081
92	462741	4.25	0.99981242132
92	494073	4.5	0.999801881328
92	525258	4.75	0.999791192752
92	561821	5	0.99978035934
92	611771	5.25	0.999768992339
92	644917	5.5	0.999758396217
92	680340	5.75	0.999747559511
92	724203	6	0.999736441777
92	769534	6.25	0.999725197315
92	812195	6.5	0.999714039223
92	840548	6.75	0.999703141434
92	857777	7	0.999692048529
92	885057	7.25	0.999680442692
92	912881	7.5	0.999668815084
92	941959	7.75	0.999657177175
92	984675	8	0.999645535587
92	1023773	8.25	0.999636028782
92	1050979	8.5	0.999623891493
92	1072935	8.75	0.999623650092
92	1099674	9	0.999603058328
92	1123192	9.25	0.999603058328
92	1124438	9.5	0.999603058328
92	1161072	9.75	0.999570836289
92	1199857	10	0.999559318341
92	1230459	10.25	0.999548100334
92	1246544	10.5	0.999541013368
92	1246564	10.75	0.999541013368
92	1246604	11	0.999516617037
92	1246624	11.25	0.999516617037
92	1246644	11.5	0.999516617037
92	1246664	11.75	0.999516617037
92	1246704	12	0.999475071144
92	1246724	12.25	0.999475071144
92	1246744	12.5	0.999475071144
92	1246764	12.75	0.999475071144
92	1246804	13	0.99943352525
92	1246824	13.25	0.99943352525
92	1246844	13.5	0.99943352525
92	1246864	13.75	0.99943352525
92	1246904	14	0.999391979356
92	1246924	14.25	0.999391979356
92	1246944	14.5	0.999391979356
92	1246964	14.75	0.999391979356
98	0	0	1
98	77	0.25	1
98	97	0.5	1
98	29021	0.75	0.999967745523
98	66273	1	0.999956087514
98	101077	1.25	0.999944727673
98	114996	1.5	0.999940055934
98	115016	1.75	0.999940055934
98	125831	2	0.999912918819
98	125851	2.25	0.999912918819
98	145229	2.5	0.999891299786
98	182808	2.75	0.999879595378
98	234756	3	0.999868028423
98	285953	3.25	0.999856481829
98	336648	3.5	0.999844872995
98	389426	3.75	0.999833240373
98	431147	4	0.999822042168
98	462742	4.25	0.999811447407
98	494074	4.5	0.999800907415
98	525259	4.75	0.999790218839
98	561822	5	0.999779241476
98	611772	5.25	0.999767530513
98	644918	5.5	0.999756892886
98	680341	5.75	0.999746091509
98	724204	6	0.999734862065
98	769535	6.25	0.999723487365
98	812196	6.5	0.99971251246
98	840549	6.75	0.99970161467
98	857778	7	0.999690801565
98	885058	7.25	0.999679801052
98	912882	7.5	0.999668743212
98	941960	7.75	0.999657051581
98	984676	8	0.999645350971