version 2
run Nine-0-20090826-15:55:56-17382
attr configname Nine
attr datetime 20090826-15:55:56
attr experiment Nine
attr inifile omnetpp.ini
attr iterationvars ""
attr iterationvars2 $repetition=0
attr measurement ""
attr network sim
attr processid 17382
attr repetition 0
attr replication #0
attr resultdir results
attr runnumber 0
attr seedset 0

vector 2  sim.host[0].batteryStats  capacity(relative)  ETV
vector 7  sim.host[1].batteryStats  capacity(relative)  ETV
vector 12  sim.host[2].batteryStats  capacity(relative)  ETV
vector 17  sim.host[3].batteryStats  capacity(relative)  ETV
vector 22  sim.host[4].batteryStats  capacity(relative)  ETV
vector 27  sim.host[5].batteryStats  capacity(relative)  ETV
vector 32  sim.host[6].batteryStats  capacity(relative)  ETV
vector 37  sim.host[7].batteryStats  capacity(relative)  ETV
vector 42  sim.host[8].batteryStats  capacity(relative)  ETV
vector 47  sim.host[9].batteryStats  capacity(relative)  ETV
vector 52  sim.host[10].batteryStats  capacity(relative)  ETV
vector 57  sim.host[11].batteryStats  capacity(relative)  ETV
vector 62  sim.host[12].batteryStats  capacity(relative)  ETV
vector 67  sim.host[13].batteryStats  capacity(relative)  ETV
vector 72  sim.host[14].batteryStats  capacity(relative)  ETV
vector 77  sim.host[15].batteryStats  capacity(relative)  ETV
vector 82  sim.host[16].batteryStats  capacity(relative)  ETV
vector 87  sim.host[17].batteryStats  capacity(relative)  ETV
vector 92  sim.host[18].batteryStats  capacity(relative)  ETV
vector 97  sim.host[19].batteryStats  capacity(relative)  ETV
2	0	0	1
2	61	0.25	1
2	81	0.5	1
2	22204	0.75	0.999969747697
2	22244	1	0.999957664555
2	22264	1.25	0.999957664555
2	22284	1.5	0.999957664555
2	22304	1.75	0.999957664555
2	24908	2	0.999916027384
2	24928	2.25	0.999916027384
2	38992	2.5	0.999896126858
2	50733	2.75	0.999883971169
2	68675	3	0.999873221117
2	75121	3.25	0.999865238279
2	88632	3.5	0.999854358866
2	93573	3.75	0.999848643233
2	107607	4	0.999830280701
2	111599	4.25	0.999828726838
2	120283	4.5	0.999809048558
2	128403	4.75	0.999805714436
2	136452	5	0.99978751889
2	159546	5.25	0.999777039489
2	159566	5.5	0.999777039489
2	184491	5.75	0.999754657935
2	189319	6	0.999744034852
2	189339	6.25	0.999744034852
2	189359	6.5	0.999744034852
2	189379	6.75	0.999744034852
2	197203	7	0.999702167601
2	201399	7.25	0.999700017399
2	204969	7.5	0.999680960887
2	217125	7.75	0.999675553293
2	231238	8	0.999659364373
2	231258	8.25	0.999659364373
2	231278	8.5	0.999659364373
2	245663	8.75	0.999630061889
2	245703	9	0.999617533069
2	245723	9.25	0.999617533069
2	245743	9.5	0.999617533069
2	273470	9.75	0.999585425245
2	274474	10	0.999574957329
2	274494	10.25	0.999574957329
2	274514	10.5	0.999574957329
2	274534	10.75	0.999574957329
2	274574	11	0.999533411436
2	274594	11.25	0.999533411436
2	274614	11.5	0.999533411436
2	274634	11.75	0.999533411436
2	274674	12	0.999491865542
2	274694	12.25	0.999491865542
2	274714	12.5	0.999491865542
2	274734	12.75	0.999491865542
2	274774	13	0.999450319648
2	274794	13.25	0.999450319648
2	274814	13.5	0.999450319648
2	274834	13.75	0.999450319648
2	274874	14	0.999408773755
2	274894	14.25	0.999408773755
2	274914	14.5	0.999408773755
2	274934	14.75	0.999408773755
7	0	0	1
7	62	0.25	1
7	82	0.5	1
7	22205	0.75	0.999969837834
7	22245	1	0.999957754692
7	22265	1.25	0.999957754692
7	22285	1.5	0.999957754692
7	22305	1.75	0.999957754692
7	24909	2	0.999916044529
7	24929	2.25	0.999916044529
7	38993	2.5	0.99989612416
7	50734	2.75	0.999884877175
7	68676	3	0.99987318829
7	75122	3.25	0.999865240486
7	88633	3.5	0.999865240486
7	93574	3.75	0.999848968609
7	107608	4	0.999831011977
7	111600	4.25	0.999829569037
7	120284	4.5	0.999810310096
7	128404	4.75	0.999807085686
7	136453	5	0.999789164942
7	159547	5.25	0.999780327516
7	159567	5.5	0.999780327516
7	184492	5.75	0.999757368929
7	189320	6	0.99974675075
7	189340	6.25	0.99974675075
7	189360	6.5	0.99974675075
7	189380	6.75	0.99974675075
7	197204	7	0.999704827439
7	201400	7.25	0.999702684866
7	204970	7.5	0.999683663683
7	217126	7.75	0.999678196464
7	231239	8	0.999662321901
7	231259	8.25	0.999662321901
7	231279	8.5	0.999662321901
7	245664	8.75	0.999662321901
7	245704	9	0.999620776008
7	245724	9.25	0.999620776008
7	245744	9.5	0.999620776008
7	273471	9.75	0.999588954181
7	274475	10	0.999578563099
7	274495	10.25	0.999578563099
7	274515	10.5	0.999578563099
7	274535	10.75	0.999578563099
7	274575	11	0.999537017206
7	274595	11.25	0.999537017206
7	274615	11.5	0.999537017206
7	274635	11.75	0.999537017206
7	274675	12	0.999495471312
7	274695	12.25	0.999495471312
7	274715	12.5	0.999495471312
7	274735	12.75	0.999495471312
7	274775	13	0.999453925418
7	274795	13.25	0.999453925418
7	274815	13.5	0.999453925418
7	274835	13.75	0.999453925418
7	274875	14	0.999412379525
7	274895	14.25	0.999412379525
7	274915	14.5	0.999412379525
7	274935	14.75	0.999412379525
12	0	0	1
12	63	0.25	1
12	83	0.5	1
12	22206	0.75	0.999969735388
12	22246	1	0.999957652245
12	22266	1.25	0.999957652245
12	22286	1.5	0.999957652245
12	22306	1.75	0.999957652245
12	24910	2	0.999916035785
12	24930	2.25	0.999916035785
12	38994	2.5	0.99989610656
12	50735	2.75	0.999884859575
12	68677	3	0.999873129279
12	75123	3.25	0.999865360621
12	88634	3.5	0.999865360621
12	93575	3.75	0.999849088744
12	107609	4	0.999831132112
12	111601	4.25	0.999829689172
12	120285	4.5	0.999810430231
12	128405	4.75	0.999807205822
12	136454	5	0.99978906731
12	159548	5.25	0.99977913453
12	159568	5.5	0.99977913453
12	184493	5.75	0.999757237939
12	189321	6	0.99974661976
12	189341	6.25	0.99974661976
12	189361	6.5	0.99974661976
12	189381	6.75	0.99974661976
12	197205	7	0.999704696449
12	201401	7.25	0.999702553876
12	204971	7.5	0.999683497364
12	217127	7.75	0.999678067701
12	231240	8	0.999662193138
12	231260	8.25	0.999662193138
12	231280	8.5	0.999662193138
12	245665	8.75	0.99963475457
12	245705	9	0.999620571225
12	245725	9.25	0.999620571225
12	245745	9.5	0.999620571225
12	273472	9.75	0.99958861916
12	274476	10	0.999578151244
12	274496	10.25	0.999578151244
12	274516	10.5	0.999578151244
12	274536	10.75	0.999578151244
12	274576	11	0.999536605351
12	274596	11.25	0.999536605351
12	274616	11.5	0.999536605351
12	274636	11.75	0.999536605351
12	274676	12	0.999495059457
12	274696	12.25	0.999495059457
12	274716	12.5	0.999495059457
12	274736	12.75	0.999495059457
12	274776	13	0.999453513563
12	274796	13.25	0.999453513563
12	274816	13.5	0.999453513563
12	274836	13.75	0.999453513563
12	274876	14	0.99941196767
12	274896	14.25	0.99941196767
12	274916	14.5	0.99941196767
12	274936	14.75	0.99941196767
17	0	0	1
17	64	0.25	1
17	84	0.5	1
17	22207	0.75	0.999969900093
17	22247	1	0.999957816951
17	22267	1.25	0.999957816951
17	22287	1.5	0.999957816951
17	22307	1.75	0.999957816951
17	24911	2	0.999916271057
17	24931	2.25	0.999916271057
17	38995	2.5	0.999896763057
17	50736	2.75	0.999884284539
17	68678	3	0.999873335927
17	75124	3.25	0.999873335927
17	88635	3.5	0.999854438893
17	93576	3.75	0.999848834609
17	107610	4	0.999830378278
17	111602	4.25	0.999828770399
17	120286	4.5	0.999809029544
17	128406	4.75	0.999805599263
17	136455	5	0.999787800195
17	159549	5.25	0.999777213773
17	159569	5.5	0.999777213773
17	184494	5.75	0.999755087676
17	189322	6	0.999744515271
17	189342	6.25	0.999744515271
17	189362	6.5	0.999744515271
17	189382	6.75	0.999744515271
17	197206	7	0.999702763666
17	201402	7.25	0.999702190993
17	204972	7.5	0.999681898166
17	217128	7.75	0.999677336549
17	231241	8	0.999660186127
17	231261	8.25	0.999660186127
17	231281	8.5	0.999660186127
17	245666	8.75	0.999630569988
17	245706	9	0.999618041167
17	245726	9.25	0.999618041167
17	245746	9.5	0.999618041167
17	273473	9.75	0.999586105371
17	274477	10	0.999575682813
17	274497	10.25	0.999575682813
17	274517	10.5	0.999575682813
17	274537	10.75	0.999575682813
17	274577	11	0.99953413692
17	274597	11.25	0.99953413692
17	274617	11.5	0.99953413692
17	274637	11.75	0.99953413692
17	274677	12	0.999492591026
17	274697	12.25	0.999492591026
17	274717	12.5	0.999492591026
17	274737	12.75	0.999492591026
17	274777	13	0.999451045132
17	274797	13.25	0.999451045132
17	274817	13.5	0.999451045132
17	274837	13.75	0.999451045132
17	274877	14	0.999409499239
17	274897	14.25	0.999409499239
17	274917	14.5	0.999409499239
17	274937	14.75	0.999409499239
22	0	0	1
22	65	0.25	1
22	85	0.5	1
22	22208	0.75	0.999969900093
22	22248	1	0.999957816951
22	22268	1.25	0.999957816951
22	22288	1.5	0.999957816951
22	22308	1.75	0.999957816951
22	24912	2	0.999916260019
22	24932	2.25	0.999916260019
22	38996	2.5	0.999896752019
22	50737	2.75	0.999884321637
22	68679	3	0.999873277001
22	75125	3.25	0.999873277001
22	88636	3.5	0.99985437293
22	93577	3.75	0.999848768646
22	107611	4	0.999830319353
22	111603	4.25	0.999828711474
22	120287	4.5	0.99980917987
22	128407	4.75	0.999805931642
22	136456	5	0.999788132574
22	159550	5.25	0.999777483015
22	159570	5.5	0.999777483015
22	184495	5.75	0.999755018351
22	189323	6	0.999744445946
22	189343	6.25	0.999744445946
22	189363	6.5	0.999744445946
22	189383	6.75	0.999744445946
22	197207	7	0.99970269434
22	201403	7.25	0.999702121668
22	204973	7.5	0.999681828841
22	217129	7.75	0.999677267223
22	231242	8	0.999660113714
22	231262	8.25	0.999660113714
22	231282	8.5	0.999660113714
22	245667	8.75	0.999630375706
22	245707	9	0.999617846885
22	245727	9.25	0.999617846885
22	245747	9.5	0.999617846885
22	273474	9.75	0.999585956136
22	274478	10	0.999575533579
22	274498	10.25	0.999575533579
22	274518	10.5	0.999575533579
22	274538	10.75	0.999575533579
22	274578	11	0.999533987685
22	274598	11.25	0.999533987685
22	274618	11.5	0.999533987685
22	274638	11.75	0.999533987685
22	274678	12	0.999492441791
22	274698	12.25	0.999492441791
22	274718	12.5	0.999492441791
22	274738	12.75	0.999492441791
22	274778	13	0.999450895897
22	274798	13.25	0.999450895897
22	274818	13.5	0.999450895897
22	274838	13.75	0.999450895897
22	274878	14	0.999409350004
22	274898	14.25	0.999409350004
22	274918	14.5	0.999409350004
22	274938	14.75	0.999409350004
27	0	0	1
27	66	0.25	1
27	86	0.5	1
27	22209	0.75	0.999970013983
27	22249	1	0.999957930841
27	22269	1.25	0.999957930841
27	22289	1.5	0.999957930841
27	22309	1.75	0.999957930841
27	24913	2	0.999916373909
27	24933	2.25	0.999916373909
27	38997	2.5	0.999896865909
27	50738	2.75	0.999884448332
27	68680	3	0.999873390891
27	75126	3.25	0.999873390891
27	88637	3.5	0.999854505348
27	93578	3.75	0.999848901063
27	107612	4	0.99983076297
27	111604	4.25	0.999829246457
27	120288	4.5	0.999809502514
27	128408	4.75	0.999806078001
27	136457	5	0.999788278933
27	159551	5.25	0.999777629375
27	159571	5.5	0.999777629375
27	184496	5.75	0.999755151905
27	189324	6	0.999744579499
27	189344	6.25	0.999744579499
27	189364	6.5	0.999744579499
27	189384	6.75	0.999744579499
27	197208	7	0.999702827894
27	201404	7.25	0.999702255221
27	204974	7.5	0.999681962394
27	217130	7.75	0.999677400777
27	231243	8	0.999660247268
27	231263	8.25	0.999660247268
27	231283	8.5	0.999660247268
27	245668	8.75	0.999630506171
27	245708	9	0.999617977351
27	245728	9.25	0.999617977351
27	245748	9.5	0.999617977351
27	273475	9.75	0.999586071162
27	274479	10	0.999575648605
27	274499	10.25	0.999575648605
27	274519	10.5	0.999575648605
27	274539	10.75	0.999575648605
27	274579	11	0.999534102711
27	274599	11.25	0.999534102711
27	274619	11.5	0.999534102711
27	274639	11.75	0.999534102711
27	274679	12	0.999492556817
27	274699	12.25	0.999492556817
27	274719	12.5	0.999492556817
27	274739	12.75	0.999492556817
27	274779	13	0.999451010924
27	274799	13.25	0.999451010924
27	274819	13.5	0.999451010924
27	274839	13.75	0.999451010924
27	274879	14	0.99940946503
27	274899	14.25	0.99940946503
27	274919	14.5	0.99940946503
27	274939	14.75	0.99940946503
32	0	0	1
32	67	0.25	1
32	87	0.5	1
32	22210	0.75	0.999969921141
32	22250	1	0.999957837998
32	22270	1.25	0.999957837998
32	22290	1.5	0.999957837998
32	22310	1.75	0.999957837998
32	24914	2	0.99991625823
32	24934	2.25	0.99991625823
32	38998	2.5	0.999896430294
32	50739	2.75	0.999885183308
32	68681	3	0.999873800862
32	75127	3.25	0.99986587472
32	88638	3.5	0.99986587472
32	93579	3.75	0.99986587472
32	107613	4	0.999831855872
32	111605	4.25	0.999830412933
32	120289	4.5	0.999811153992
32	128409	4.75	0.999807929582
32	136458	5	0.999789759646
32	159552	5.25	0.999779796078
32	159572	5.5	0.999779796078
32	184497	5.75	0.999758157149
32	189325	6	0.999747652748
32	189345	6.25	0.999747652748
32	189365	6.5	0.999747652748
32	189385	6.75	0.999747652748
32	197209	7	0.999706036624
32	201405	7.25	0.999703983685
32	204975	7.5	0.999684920816
32	217131	7.75	0.99967955543
32	231244	8	0.999663680868
32	231264	8.25	0.999663680868
32	231284	8.5	0.999663680868
32	245669	8.75	0.999636242299
32	245709	9	0.999622058955
32	245729	9.25	0.999622058955
32	245749	9.5	0.999622058955
32	273476	9.75	0.999590306921
32	274480	10	0.999579839005
32	274500	10.25	0.999579839005
32	274520	10.5	0.999579839005
32	274540	10.75	0.999579839005
32	274580	11	0.999538293111
32	274600	11.25	0.999538293111
32	274620	11.5	0.999538293111
32	274640	11.75	0.999538293111
32	274680	12	0.999496747217
32	274700	12.25	0.999496747217
32	274720	12.5	0.999496747217
32	274740	12.75	0.999496747217
32	274780	13	0.999455201324
32	274800	13.25	0.999455201324
32	274820	13.5	0.999455201324
32	274840	13.75	0.999455201324
32	274880	14	0.99941365543
32	274900	14.25	0.99941365543
32	274920	14.5	0.99941365543
32	274940	14.75	0.99941365543
37	0	0	1
37	68	0.25	1
37	88	0.5	1
37	22211	0.75	0.999969734484
37	22251	1	0.999957651341
37	22271	1.25	0.999957651341
37	22291	1.5	0.999957651341
37	22311	1.75	0.999957651341
37	24915	2	0.99991601417
37	24935	2.25	0.99991601417
37	38999	2.5	0.999896100431
37	50740	2.75	0.999883944742
37	68682	3	0.999872898976
37	75128	3.25	0.999864916138
37	88639	3.5	0.999854036725
37	93580	3.75	0.999848312806
37	107614	4	0.999829950274
37	111606	4.25	0.999828396411
37	120290	4.5	0.999808718131
37	128410	4.75	0.999805384009
37	136459	5	0.999787188463
37	159553	5.25	0.999776709062
37	159573	5.5	0.999776709062
37	184498	5.75	0.999754515373
37	189326	6	0.999744000276
37	189346	6.25	0.999744000276
37	189366	6.5	0.999744000276
37	189386	6.75	0.999744000276
37	197210	7	0.999702143151
37	201406	7.25	0.999699992949
37	204976	7.5	0.999680933349
37	217132	7.75	0.999675487791
37	231245	8	0.999659298871
37	231265	8.25	0.999659298871
37	231285	8.5	0.999659298871
37	245670	8.75	0.999629996388
37	245710	9	0.999617467567
37	245730	9.25	0.999617467567
37	245750	9.5	0.999617467567
37	273477	9.75	0.999585359744
37	274481	10	0.999574891828
37	274501	10.25	0.999574891828
37	274521	10.5	0.999574891828
37	274541	10.75	0.999574891828
37	274581	11	0.999533345934
37	274601	11.25	0.999533345934
37	274621	11.5	0.999533345934
37	274641	11.75	0.999533345934
37	274681	12	0.99949180004
37	274701	12.25	0.99949180004
37	274721	12.5	0.99949180004
37	274741	12.75	0.99949180004
37	274781	13	0.999450254147
37	274801	13.25	0.999450254147
37	274821	13.5	0.999450254147
37	274841	13.75	0.999450254147
37	274881	14	0.999408708253
37	274901	14.25	0.999408708253
37	274921	14.5	0.999408708253
37	274941	14.75	0.999408708253
42	0	0	1
42	69	0.25	1
42	89	0.5	1
42	22212	0.75	0.999969796967
42	22252	1	0.999957713824
42	22272	1.25	0.999957713824
42	22292	1.5	0.999957713824
42	22312	1.75	0.999957713824
42	24916	2	0.99991616793
42	24936	2.25	0.99991616793
42	39000	2.5	0.999896250286
42	50741	2.75	0.9998850033
42	68683	3	0.999873363888
42	75129	3.25	0.999865622911
42	88640	3.5	0.999865622911
42	93581	3.75	0.999849434022
42	107615	4	0.999831488108
42	111607	4.25	0.999830045169
42	120291	4.5	0.999810786228
42	128411	4.75	0.999807561818
42	136460	5	0.999789580514
42	159554	5.25	0.999780762243
42	159574	5.5	0.999780762243
42	184499	5.75	0.999757838417
42	189327	6	0.999747240945
42	189347	6.25	0.999747240945
42	189367	6.5	0.999747240945
42	189387	6.75	0.999747240945
42	197211	7	0.999705370152
42	201407	7.25	0.999703232756
42	204977	7.5	0.999684191115
42	217133	7.75	0.999678750779
42	231246	8	0.999662876216
42	231266	8.25	0.999662876216
42	231286	8.5	0.999662876216
42	245671	8.75	0.999662876216
42	245711	9	0.999621330323
42	245731	9.25	0.999621330323
42	245751	9.5	0.999621330323
42	273478	9.75	0.999589452907
42	274482	10	0.99957903035
42	274502	10.25	0.99957903035
42	274522	10.5	0.99957903035
42	274542	10.75	0.99957903035
42	274582	11	0.999537484456
42	274602	11.25	0.999537484456
42	274622	11.5	0.999537484456
42	274642	11.75	0.999537484456
42	274682	12	0.999495938562
42	274702	12.25	0.999495938562
42	274722	12.5	0.999495938562
42	274742	12.75	0.999495938562
42	274782	13	0.999454392669
42	274802	13.25	0.999454392669
42	274822	13.5	0.999454392669
42	274842	13.75	0.999454392669
42	274882	14	0.999412846775
42	274902	14.25	0.999412846775
42	274922	14.5	0.999412846775
42	274942	14.75	0.999412846775
47	0	0	1
47	70	0.25	1
47	90	0.5	1
47	22213	0.75	0.999970135641
47	22253	1	0.999958052499
47	22273	1.25	0.999958052499
47	22293	1.5	0.999958052499
47	22313	1.75	0.999958052499
47	24917	2	0.999916307981
47	24937	2.25	0.999916307981
47	39001	2.5	0.99989636863
47	50742	2.75	0.999883830626
47	68684	3	0.999872677505
47	75130	3.25	0.999864620217
47	88641	3.5	0.999853223759
47	93582	3.75	0.999847395307
47	107616	4	0.999828908597
47	111608	4.25	0.999827351941
47	120292	4.5	0.999807543969
47	128412	4.75	0.999804055427
47	136461	5	0.999785966052
47	159555	5.25	0.999775222706
47	159575	5.5	0.999775222706
47	184500	5.75	0.999752587866
47	189328	6	0.999741951977
47	189348	6.25	0.999741951977
47	189368	6.5	0.999741951977
47	189388	6.75	0.999741951977
47	197212	7	0.999700075008
47	201408	7.25	0.999697934524
47	204978	7.5	0.999678923059
47	217134	7.75	0.999673439084
47	231247	8	0.99965672858
47	231267	8.25	0.99965672858
47	231287	8.5	0.99965672858
47	245672	8.75	0.999626881949
47	245712	9	0.999614353128
47	245732	9.25	0.999614353128
47	245752	9.5	0.999614353128
47	273479	9.75	0.999582230296
47	274483	10	0.999571762381
47	274503	10.25	0.999571762381
47	274523	10.5	0.999571762381
47	274543	10.75	0.999571762381
47	274583	11	0.999530216487
47	274603	11.25	0.999530216487
47	274623	11.5	0.999530216487
47	274643	11.75	0.999530216487
47	274683	12	0.999488670593
47	274703	12.25	0.999488670593
47	274723	12.5	0.999488670593
47	274743	12.75	0.999488670593
47	274783	13	0.999447124699
47	274803	13.25	0.999447124699
47	274823	13.5	0.999447124699
47	274843	13.75	0.999447124699
47	274883	14	0.999405578806
47	274903	14.25	0.999405578806
47	274923	14.5	0.999405578806
47	274943	14.75	0.999405578806
52	0	0	1
52	71	0.25	1
52	91	0.5	1
52	22214	0.75	0.999970037415
52	22254	1	0.999957954272
52	22274	1.25	0.999957954272
52	22294	1.5	0.999957954272
52	22314	1.75	0.999957954272
52	24918	2	0.999916397341
52	24938	2.25	0.999916397341
52	39002	2.5	0.999897032182
52	50743	2.75	0.999884573507
52	68685	3	0.999873774929
52	75131	3.25	0.999873774929
52	88642	3.5	0.999855221338
52	93583	3.75	0.999855221338
52	107617	4	0.999831276112
52	111609	4.25	0.999829684127
52	120293	4.5	0.999809962253
52	128413	4.75	0.999806512129
52	136462	5	0.999788713061
52	159556	5.25	0.999778069678
52	159576	5.5	0.999778069678
52	184501	5.75	0.999755831663
52	189329	6	0.999745338817
52	189349	6.25	0.999745338817
52	189369	6.5	0.999745338817
52	189389	6.75	0.999745338817
52	197213	7	0.999703722694
52	201409	7.25	0.999703150021
52	204979	7.5	0.999682976526
52	217135	7.75	0.999678521378
52	231248	8	0.999661287339
52	231268	8.25	0.999661287339
52	231288	8.5	0.999661287339
52	245673	8.75	0.999631549331
52	245713	9	0.99961902051
52	245733	9.25	0.99961902051
52	245753	9.5	0.99961902051
52	273480	9.75	0.999587106735
52	274484	10	0.999576684178
52	274504	10.25	0.999576684178
52	274524	10.5	0.999576684178
52	274544	10.75	0.999576684178
52	274584	11	0.999535138284
52	274604	11.25	0.999535138284
52	274624	11.5	0.999535138284
52	274644	11.75	0.999535138284
52	274684	12	0.99949359239
52	274704	12.25	0.99949359239
52	274724	12.5	0.99949359239
52	274744	12.75	0.99949359239
52	274784	13	0.999452046497
52	274804	13.25	0.999452046497
52	274824	13.5	0.999452046497
52	274844	13.75	0.999452046497
52	274884	14	0.999410500603
52	274904	14.25	0.999410500603
52	274924	14.5	0.999410500603
52	274944	14.75	0.999410500603
57	0	0	1
57	72	0.25	1
57	92	0.5	1
57	22215	0.75	0.999970032965
57	22255	1	0.999957949822
57	22275	1.25	0.999957949822
57	22295	1.5	0.999957949822
57	22315	1.75	0.999957949822
57	24919	2	0.999916392891
57	24939	2.25	0.999916392891
57	39003	2.5	0.999896884891
57	50744	2.75	0.999884463772
57	68686	3	0.999873416048
57	75132	3.25	0.999873416048
57	88643	3.5	0.999854515065
57	93584	3.75	0.999848910781
57	107618	4	0.999830435876
57	111610	4.25	0.999828853609
57	120294	4.5	0.999809115841
57	128414	4.75	0.999805694417
57	136463	5	0.999787895349
57	159557	5.25	0.999777704528
57	159577	5.5	0.999777704528
57	184502	5.75	0.99975524336
57	189330	6	0.999744670955
57	189350	6.25	0.999744670955
57	189370	6.5	0.999744670955
57	189390	6.75	0.999744670955
57	197214	7	0.999702919349
57	201410	7.25	0.999702346676
57	204980	7.5	0.999682053849
57	217136	7.75	0.999677492232
57	231249	8	0.999660338723
57	231269	8.25	0.999660338723
57	231289	8.5	0.999660338723
57	245674	8.75	0.999630597627
57	245714	9	0.999618068806
57	245734	9.25	0.999618068806
57	245754	9.5	0.999618068806
57	273481	9.75	0.999586168793
57	274485	10	0.999575746236
57	274505	10.25	0.999575746236
57	274525	10.5	0.999575746236
57	274545	10.75	0.999575746236
57	274585	11	0.999534200342
57	274605	11.25	0.999534200342
57	274625	11.5	0.999534200342
57	274645	11.75	0.999534200342
57	274685	12	0.999492654448
57	274705	12.25	0.999492654448
57	274725	12.5	0.999492654448
57	274745	12.75	0.999492654448
57	274785	13	0.999451108554
57	274805	13.25	0.999451108554
57	274825	13.5	0.999451108554
57	274845	13.75	0.999451108554
57	274885	14	0.999409562661
57	274905	14.25	0.999409562661
57	274925	14.5	0.999409562661
57	274945	14.75	0.999409562661
62	0	0	1
62	73	0.25	1
62	93	0.5	1
62	22216	0.75	0.999969841376
62	22256	1	0.999957758234
62	22276	1.25	0.999957758234
62	22296	1.5	0.999957758234
62	22316	1.75	0.999957758234
62	24920	2	0.999916022914
62	24940	2.25	0.999916022914
62	39004	2.5	0.999896110445
62	50745	2.75	0.999884863459
62	68687	3	0.999873193465
62	75133	3.25	0.999865238623
62	88644	3.5	0.999865238623
62	93585	3.75	0.999848811239
62	107619	4	0.999830865326
62	111611	4.25	0.999829422386
62	120295	4.5	0.999810163445
62	128415	4.75	0.999806939035
62	136464	5	0.999788842028
62	159558	5.25	0.999779970432
62	159578	5.5	0.999779970432
62	184503	5.75	0.999757039114
62	189331	6	0.999746416031
62	189351	6.25	0.999746416031
62	189371	6.5	0.999746416031
62	189391	6.75	0.999746416031
62	197215	7	0.999704445879
62	201411	7.25	0.999702398124
62	204981	7.5	0.99968345314
62	217137	7.75	0.999678267241
62	231250	8	0.999662392678
62	231270	8.25	0.999662392678
62	231290	8.5	0.999662392678
62	245675	8.75	0.999662392678
62	245715	9	0.999620846784
62	245735	9.25	0.999620846784
62	245755	9.5	0.999620846784
62	273482	9.75	0.999589025411
62	274486	10	0.999578557496
62	274506	10.25	0.999578557496
62	274526	10.5	0.999578557496
62	274546	10.75	0.999578557496
62	274586	11	0.999537011602
62	274606	11.25	0.999537011602
62	274626	11.5	0.999537011602
62	274646	11.75	0.999537011602
62	274686	12	0.999495465708
62	274706	12.25	0.999495465708
62	274726	12.5	0.999495465708
62	274746	12.75	0.999495465708
62	274786	13	0.999453919814
62	274806	13.25	0.999453919814
62	274826	13.5	0.999453919814
62	274846	13.75	0.999453919814
62	274886	14	0.999412373921
62	274906	14.25	0.999412373921
62	274926	14.5	0.999412373921
62	274946	14.75	0.999412373921
67	0	0	1
67	74	0.25	1
67	94	0.5	1
67	22217	0.75	0.999970037415
67	22257	1	0.999957954272
67	22277	1.25	0.999957954272
67	22297	1.5	0.999957954272
67	22317	1.75	0.999957954272
67	24921	2	0.999916397341
67	24941	2.25	0.999916397341
67	39005	2.5	0.999897032182
67	50746	2.75	0.999884595169
67	68688	3	0.999873899038
67	75134	3.25	0.999873899038
67	88645	3.5	0.999855010861
67	93586	3.75	0.999855010861
67	107620	4	0.99983110051
67	111612	4.25	0.999829479825
67	120296	4.5	0.999809735882
67	128416	4.75	0.999806314865
67	136465	5	0.999788515797
67	159559	5.25	0.999777875502
67	159579	5.5	0.999777875502
67	184504	5.75	0.999755685168
67	189332	6	0.999745192323
67	189352	6.25	0.999745192323
67	189372	6.5	0.999745192323
67	189392	6.75	0.999745192323
67	197216	7	0.999703576199
67	201412	7.25	0.999703003527
67	204982	7.5	0.999682830031
67	217138	7.75	0.999678374883
67	231251	8	0.999661143932
67	231271	8.25	0.999661143932
67	231291	8.5	0.999661143932
67	245676	8.75	0.999631771752
67	245716	9	0.999619242931
67	245736	9.25	0.999619242931
67	245756	9.5	0.999619242931
67	273483	9.75	0.999587329156
67	274487	10	0.999576906599
67	274507	10.25	0.999576906599
67	274527	10.5	0.999576906599
67	274547	10.75	0.999576906599
67	274587	11	0.999535360705
67	274607	11.25	0.999535360705
67	274627	11.5	0.999535360705
67	274647	11.75	0.999535360705
67	274687	12	0.999493814812
67	274707	12.25	0.999493814812
67	274727	12.5	0.999493814812
67	274747	12.75	0.999493814812
67	274787	13	0.999452268918
67	274807	13.25	0.999452268918
67	274827	13.5	0.999452268918
67	274847	13.75	0.999452268918
67	274887	14	0.999410723024
67	274907	14.25	0.999410723024
67	274927	14.5	0.999410723024
67	274947	14.75	0.999410723024
72	0	0	1
72	75	0.25	1
72	95	0.5	1
72	22218	0.75	0.999970027946
72	22258	1	0.999957944804
72	22278	1.25	0.999957944804
72	22298	1.5	0.999957944804
72	22318	1.75	0.999957944804
72	24922	2	0.999916231961
72	24942	2.25	0.999916231961
72	39006	2.5	0.99989680788
72	50747	2.75	0.999884297302
72	68689	3	0.999873664746
72	75135	3.25	0.999865788714
72	88646	3.5	0.999854457237
72	93587	3.75	0.999854457237
72	107621	4	0.999830489442
72	111613	4.25	0.999828874546
72	120297	4.5	0.999809103294
72	128417	4.75	0.999805643014
72	136466	5	0.999787779235
72	159560	5.25	0.999777093953
72	159580	5.5	0.999777093953
72	184505	5.75	0.999755035182
72	189333	6	0.999744542336
72	189353	6.25	0.999744542336
72	189373	6.5	0.999744542336
72	189393	6.75	0.999744542336
72	197217	7	0.999702926213
72	201413	7.25	0.99970235354
72	204983	7.5	0.999682151616
72	217139	7.75	0.999677652557
72	231252	8	0.999660363662
72	231272	8.25	0.999660363662
72	231292	8.5	0.999660363662
72	245677	8.75	0.999630770322
72	245717	9	0.999618205523
72	245737	9.25	0.999618205523
72	245757	9.5	0.999618205523
72	273484	9.75	0.99958635792
72	274488	10	0.999575935362
72	274508	10.25	0.999575935362
72	274528	10.5	0.999575935362
72	274548	10.75	0.999575935362
72	274588	11	0.999534389469
72	274608	11.25	0.999534389469
72	274628	11.5	0.999534389469
72	274648	11.75	0.999534389469
72	274688	12	0.999492843575
72	274708	12.25	0.999492843575
72	274728	12.5	0.999492843575
72	274748	12.75	0.999492843575
72	274788	13	0.999451297681
72	274808	13.25	0.999451297681
72	274828	13.5	0.999451297681
72	274848	13.75	0.999451297681
72	274888	14	0.999409751787
72	274908	14.25	0.999409751787
72	274928	14.5	0.999409751787
72	274948	14.75	0.999409751787
77	0	0	1
77	76	0.25	1
77	96	0.5	1
77	22219	0.75	0.999969840922
77	22259	1	0.99995775778
77	22279	1.25	0.99995775778
77	22299	1.5	0.99995775778
77	22319	1.75	0.99995775778
77	24923	2	0.99991602246
77	24943	2.25	0.99991602246
77	39007	2.5	0.999896442307
77	50748	2.75	0.999885195322
77	68690	3	0.999873537679
77	75136	3.25	0.999865596051
77	88647	3.5	0.999865596051
77	93588	3.75	0.999849168667
77	107622	4	0.999831222754
77	111614	4.25	0.999829779814
77	120298	4.5	0.999810520873
77	128418	4.75	0.999807296463
77	136467	5	0.999789202998
77	159561	5.25	0.999780318596
77	159581	5.5	0.999780318596
77	184506	5.75	0.999757375
77	189334	6	0.999746781813
77	189354	6.25	0.999746781813
77	189374	6.5	0.999746781813
77	189394	6.75	0.999746781813
77	197218	7	0.999704811661
77	201414	7.25	0.999702776711
77	204984	7.5	0.999683765246
77	217140	7.75	0.999678290535
77	231253	8	0.999662415973
77	231273	8.25	0.999662415973
77	231293	8.5	0.999662415973
77	245678	8.75	0.999662415973
77	245718	9	0.999620870079
77	245738	9.25	0.999620870079
77	245758	9.5	0.999620870079
77	273485	9.75	0.999589003612
77	274489	10	0.999578535697
77	274509	10.25	0.999578535697
77	274529	10.5	0.999578535697
77	274549	10.75	0.999578535697
77	274589	11	0.999536989803
77	274609	11.25	0.999536989803
77	274629	11.5	0.999536989803
77	274649	11.75	0.999536989803
77	274689	12	0.999495443909
77	274709	12.25	0.999495443909
77	274729	12.5	0.999495443909
77	274749	12.75	0.999495443909
77	274789	13	0.999453898015
77	274809	13.25	0.999453898015
77	274829	13.5	0.999453898015
77	274849	13.75	0.999453898015
77	274889	14	0.999412352122
77	274909	14.25	0.999412352122
77	274929	14.5	0.999412352122
77	274949	14.75	0.999412352122
82	0	0	1
82	77	0.25	1
82	97	0.5	1
82	22220	0.75	0.999969837834
82	22260	1	0.999957754692
82	22280	1.25	0.999957754692
82	22300	1.5	0.999957754692
82	22320	1.75	0.999957754692
82	24924	2	0.999916117521
82	24944	2.25	0.999916117521
82	39008	2.5	0.99989620687
82	50749	2.75	0.999884959884
82	68691	3	0.999873312821
82	75137	3.25	0.999865329984
82	88648	3.5	0.999865329984
82	93589	3.75	0.999849017852
82	107623	4	0.999831071938
82	111615	4.25	0.999829628998
82	120299	4.5	0.999810370058
82	128419	4.75	0.999807145648
82	136468	5	0.9997889778
82	159562	5.25	0.999780113833
82	159582	5.5	0.999780113833
82	184507	5.75	0.999757218706
82	189335	6	0.999746582817
82	189355	6.25	0.999746582817
82	189375	6.5	0.999746582817
82	189395	6.75	0.999746582817
82	197219	7	0.999704891621
82	201415	7.25	0.999702873884
82	204985	7.5	0.999683830178
82	217141	7.75	0.999678362097
82	231254	8	0.999662487534
82	231274	8.25	0.999662487534
82	231294	8.5	0.999662487534
82	245679	8.75	0.999662487534
82	245719	9	0.999620941641
82	245739	9.25	0.999620941641
82	245759	9.5	0.999620941641
82	273486	9.75	0.999589103011
82	274490	10	0.999578635096
82	274510	10.25	0.999578635096
82	274530	10.5	0.999578635096
82	274550	10.75	0.999578635096
82	274590	11	0.999537089202
82	274610	11.25	0.999537089202
82	274630	11.5	0.999537089202
82	274650	11.75	0.999537089202
82	274690	12	0.999495543308
82	274710	12.25	0.999495543308
82	274730	12.5	0.999495543308
82	274750	12.75	0.999495543308
82	274790	13	0.999453997414