version 2
run Two-0-20110329-15:17:50-9088
attr configname Two
attr datetime 20110329-15:17:50
attr experiment Two
attr inifile omnetpp.ini
attr iterationvars ""
attr iterationvars2 $repetition=0
attr measurement ""
attr network sim
attr processid 9088
attr repetition 0
attr replication #0
attr resultdir results
attr runnumber 0
attr seedset 0

vector 2  sim.host[0].batteryStats  capacity(relative)  ETV
vector 8  sim.host[1].batteryStats  capacity(relative)  ETV
2	0	0	0.666666666667
2	0	0	0.666666666667
2	7	1	0.6665
2	9	2	0.666333333333
2	16	2.62802922821	0.666228661795
2	20	2.62888522821	0.666228347929
2	25	3	0.666166495467
2	27	4	0.6659998288
2	29	5	0.665833162133
2	31	6	0.665666495467
2	33	7	0.6654998288
2	35	8	0.665333162133
2	51	9	0.665166495467
2	53	10	0.6649998288
2	54	10	0.6649998288
8	0	0	0.666666666667
8	0	0	0.666666666667
8	8	1	0.6665
8	10	2	0.666333333333
8	26	3	0.666166666667
8	28	4	0.666
8	30	5	0.665833333333
8	32	6	0.665666666667
8	34	7	0.6655
8	36	8	0.665333333333
8	42	8.688070131022	0.665218654978
8	46	8.688926131022	0.665218341111
8	52	9	0.665166495467
8	54	10	0.6649998288
