version 2
run Six-0-20091217-15:09:11-32021
attr configname Six
attr datetime 20091217-15:09:11
attr experiment Six
attr inifile omnetpp.ini
attr iterationvars ""
attr iterationvars2 $repetition=0
attr measurement ""
attr network sim
attr processid 32021
attr repetition 0
attr replication #0
attr resultdir results
attr runnumber 0
attr seedset 0

vector 2  sim.host[0].batteryStats  capacity(relative)  ETV
vector 7  sim.host[1].batteryStats  capacity(relative)  ETV
vector 12  sim.host[2].batteryStats  capacity(relative)  ETV
2	0	0	1
2	0	0	1
2	10	1	0.998611111111
2	216	1.006556273925	0.998602005175
2	216	1.006556273925	0.998602005175
2	224	1.007412273925	0.998102671842
2	224	1.007412273925	0.998102671842
2	234	1.008116273925	0.998101694064
2	234	1.008116273925	0.998101694064
2	242	1.008972273925	0.997602360731
2	242	1.008972273925	0.997602360731
2	252	1.009636273925	0.997601438508
2	252	1.009636273925	0.997601438508
2	262	1.010492273925	0.997102105175
2	262	1.010492273925	0.997102105175
2	276	1.010542273925	0.997102035731
2	280	1.010814273925	0.996973591286
2	288	1.010824273925	0.996973577397
2	288	1.010824273925	0.996973577397
2	296	1.011072273925	0.996828910731
2	296	1.011072273925	0.996828910731
2	305	1.011082273925	0.996828896842
2	308	1.011938273925	0.99642467462
2	318	1.011948273925	0.996424660731
2	318	1.011948273925	0.996424660731
2	327	1.012196273925	0.996279994064
2	327	1.012196273925	0.996279994064
2	334	1.012546273925	0.996279507953
2	334	1.012546273925	0.996279507953
2	343	1.013402273925	0.99578017462
2	343	1.013402273925	0.99578017462
2	353	1.013852273925	0.99577954962
2	353	1.013852273925	0.99577954962
2	363	1.014708273925	0.995280216286
2	363	1.014708273925	0.995280216286
2	377	1.014758273925	0.995280146842
2	381	1.015030273925	0.995151702397
2	389	1.015040273925	0.995151688508
2	389	1.015040273925	0.995151688508
2	399	1.015288273925	0.995007021842
2	399	1.015288273925	0.995007021842
2	408	1.015298273925	0.995007007953
2	415	1.016154273925	0.994602785731
2	425	1.016164273925	0.994602771842
2	425	1.016164273925	0.994602771842
2	434	1.016412273925	0.994458105175
2	434	1.016412273925	0.994458105175
2	447	1.016602273925	0.994457841286
2	452	1.016874273925	0.994329396842
2	460	1.016884273925	0.994329382953
2	460	1.016884273925	0.994329382953
2	468	1.017132273925	0.994184716286
2	468	1.017132273925	0.994184716286
2	477	1.017142273925	0.994184702397
2	482	1.017998273925	0.993780480175
2	492	1.018008273925	0.993780466286
2	492	1.018008273925	0.993780466286
2	503	1.018256273925	0.99363579962
2	503	1.018256273925	0.99363579962
2	514	1.018346273925	0.99363567462
2	519	1.018618273925	0.993507230175
2	527	1.018628273925	0.993507216286
2	527	1.018628273925	0.993507216286
2	535	1.018876273925	0.99336254962
2	535	1.018876273925	0.99336254962
2	544	1.018886273925	0.993362535731
2	549	1.019742273925	0.992958313508
2	559	1.019752273925	0.99295829962
2	559	1.019752273925	0.99295829962
2	568	1.020000273925	0.992813632953
2	568	1.020000273925	0.992813632953
2	579	1.020150273925	0.99281342462
2	584	1.020422273925	0.992684980175
2	592	1.020432273925	0.992684966286
2	592	1.020432273925	0.992684966286
2	600	1.020680273925	0.99254029962
2	600	1.020680273925	0.99254029962
2	609	1.020690273925	0.992540285731
2	612	1.021546273925	0.992136063508
2	622	1.021556273925	0.99213604962
2	622	1.021556273925	0.99213604962
2	631	1.021804273925	0.991991382953
2	631	1.021804273925	0.991991382953
2	642	1.021914273925	0.991991230175
2	647	1.022186273925	0.991862785731
2	655	1.022196273925	0.991862771842
2	655	1.022196273925	0.991862771842
2	663	1.022444273925	0.991718105175
2	663	1.022444273925	0.991718105175
2	672	1.022454273925	0.991718091286
2	677	1.023310273925	0.991313869064
2	687	1.023320273925	0.991313855175
2	687	1.023320273925	0.991313855175
2	696	1.023568273925	0.991169188508
2	696	1.023568273925	0.991169188508
2	705	1.024018273925	0.991168563508
2	705	1.024018273925	0.991168563508
2	732	1.024874273925	0.990669230175
2	732	1.024874273925	0.990669230175
2	748	1.025024273925	0.990669021842
2	753	1.025296273925	0.990540577397
2	761	1.025306273925	0.990540563508
2	761	1.025306273925	0.990540563508
2	769	1.025554273925	0.990395896842
2	769	1.025554273925	0.990395896842
2	778	1.025564273925	0.990395882953
2	781	1.026420273925	0.989991660731
2	791	1.026430273925	0.989991646842
2	791	1.026430273925	0.989991646842
2	800	1.026678273925	0.989846980175
2	800	1.026678273925	0.989846980175
2	811	1.026868273925	0.989846716286
2	816	1.027140273925	0.989718271842
2	824	1.027150273925	0.989718257953
2	824	1.027150273925	0.989718257953
2	832	1.027398273925	0.989573591286
2	832	1.027398273925	0.989573591286
2	841	1.027408273925	0.989573577397
2	844	1.028264273925	0.989169355175
2	854	1.028274273925	0.989169341286
2	854	1.028274273925	0.989169341286
2	863	1.028522273925	0.98902467462
2	863	1.028522273925	0.98902467462
2	874	1.028772273925	0.989024327397
2	879	1.029044273925	0.988895882953
2	887	1.029054273925	0.988895869064
2	887	1.029054273925	0.988895869064
2	895	1.029302273925	0.988751202397
2	895	1.029302273925	0.988751202397
2	904	1.029312273925	0.988751188508
2	907	1.030168273925	0.988346966286
2	917	1.030178273925	0.988346952397
2	917	1.030178273925	0.988346952397
2	926	1.030426273925	0.988202285731
2	926	1.030426273925	0.988202285731
2	936	1.031016273925	0.988201466286
2	936	1.031016273925	0.988201466286
2	945	1.031872273925	0.987702132953
2	945	1.031872273925	0.987702132953
2	956	1.032462273925	0.987701313508
2	956	1.032462273925	0.987701313508
2	967	1.033318273925	0.987201980175
2	967	1.033318273925	0.987201980175
2	982	1.033368273925	0.987201910731
2	987	1.033640273925	0.987073466286
2	995	1.033650273925	0.987073452397
2	995	1.033650273925	0.987073452397
2	1003	1.033898273925	0.986928785731
2	1003	1.033898273925	0.986928785731
2	1012	1.033908273925	0.986928771842
2	1015	1.034764273925	0.98652454962
2	1025	1.034774273925	0.986524535731
2	1025	1.034774273925	0.986524535731
2	1034	1.035022273925	0.986379869064
2	1034	1.035022273925	0.986379869064
2	1044	1.035332273925	0.986379438508
2	1044	1.035332273925	0.986379438508
2	1053	1.036188273925	0.985880105175
2	1053	1.036188273925	0.985880105175
2	1066	1.036298273925	0.985879952397
2	1066	1.036298273925	0.985879952397
2	1075	1.037154273925	0.985380619064
2	1075	1.037154273925	0.985380619064
2	1086	1.037504273925	0.985380132953
2	1086	1.037504273925	0.985380132953
2	1095	1.038360273925	0.98488079962
2	1095	1.038360273925	0.98488079962
2	1111	1.038890273925	0.984880063508
2	1115	1.039162273925	0.984751619064
2	1123	1.039172273925	0.984751605175
2	1123	1.039172273925	0.984751605175
2	1131	1.039420273925	0.984606938508
2	1131	1.039420273925	0.984606938508
2	1140	1.039430273925	0.98460692462
2	1145	1.040286273925	0.984202702397
2	1155	1.040296273925	0.984202688508
2	1155	1.040296273925	0.984202688508
2	1166	1.040544273925	0.984058021842
2	1166	1.040544273925	0.984058021842
2	1177	1.040594273925	0.984057952397
2	1182	1.040866273925	0.983929507953
2	1190	1.040876273925	0.983929494064
2	1190	1.040876273925	0.983929494064
2	1202	1.041124273925	0.983784827397
2	1202	1.041124273925	0.983784827397
2	1211	1.041134273925	0.983784813508
2	1216	1.041990273925	0.983380591286
2	1226	1.042000273925	0.983380577397
2	1226	1.042000273925	0.983380577397
2	1235	1.042248273925	0.983235910731
2	1235	1.042248273925	0.983235910731
2	1246	1.042318273925	0.983235813508
2	1251	1.042590273925	0.983107369064
2	1259	1.042600273925	0.983107355175
2	1259	1.042600273925	0.983107355175
2	1267	1.042848273925	0.982962688508
2	1267	1.042848273925	0.982962688508
2	1276	1.042858273925	0.98296267462
2	1279	1.043714273925	0.982558452397
2	1289	1.043724273925	0.982558438508
2	1289	1.043724273925	0.982558438508
2	1300	1.043972273925	0.982413771842
2	1300	1.043972273925	0.982413771842
2	1308	1.044202273925	0.982413452397
2	1308	1.044202273925	0.982413452397
2	1318	1.045058273925	0.981914119064
2	1318	1.045058273925	0.981914119064
2	1333	1.045288273925	0.98191379962
2	1338	1.045560273925	0.981785355175
2	1346	1.045570273925	0.981785341286
2	1346	1.045570273925	0.981785341286
2	1356	1.045818273925	0.98164067462
2	1356	1.045818273925	0.98164067462
2	1365	1.045828273925	0.981640660731
2	1370	1.046684273925	0.981236438508
2	1380	1.046694273925	0.98123642462
2	1380	1.046694273925	0.98123642462
2	1389	1.046942273925	0.981091757953
2	1389	1.046942273925	0.981091757953
2	1400	1.047012273925	0.981091660731
2	1405	1.047284273925	0.980963216286
2	1413	1.047294273925	0.980963202397
2	1413	1.047294273925	0.980963202397
2	1423	1.047542273925	0.980818535731
2	1423	1.047542273925	0.980818535731
2	1432	1.047552273925	0.980818521842
2	1435	1.048408273925	0.98041429962
2	1445	1.048418273925	0.980414285731
2	1445	1.048418273925	0.980414285731
2	1454	1.048666273925	0.980269619064
2	1454	1.048666273925	0.980269619064
2	1462	1.048796273925	0.980269438508
2	1462	1.048796273925	0.980269438508
2	1472	1.049652273925	0.979770105175
2	1472	1.049652273925	0.979770105175
2	1489	1.050042273925	0.979769563508
2	1494	1.050314273925	0.979641119064
2	1502	1.050324273925	0.979641105175
2	1502	1.050324273925	0.979641105175
2	1510	1.050572273925	0.979496438508
2	1510	1.050572273925	0.979496438508
2	1519	1.050582273925	0.97949642462
2	1522	1.051438273925	0.979092202397
2	1532	1.051448273925	0.979092188508
2	1532	1.051448273925	0.979092188508
2	1541	1.051696273925	0.978947521842
2	1541	1.051696273925	0.978947521842
2	1552	1.051846273925	0.978947313508
2	1557	1.052118273925	0.978818869064
2	1565	1.052128273925	0.978818855175
2	1565	1.052128273925	0.978818855175
2	1573	1.052376273925	0.978674188508
2	1573	1.052376273925	0.978674188508
2	1582	1.052386273925	0.97867417462
2	1587	1.053242273925	0.978269952397
2	1597	1.053252273925	0.978269938508
2	1597	1.053252273925	0.978269938508
2	1606	1.053500273925	0.978125271842
2	1606	1.053500273925	0.978125271842
2	1615	1.053810273925	0.978124841286
2	1615	1.053810273925	0.978124841286
2	1636	1.054666273925	0.977625507953
2	1636	1.054666273925	0.977625507953
2	1647	1.054810274925	0.977625307951
2	1652	1.055082274925	0.977496863507
2	1660	1.055092274925	0.977496849618
2	1660	1.055092274925	0.977496849618
2	1668	1.055340274925	0.977352182951
2	1668	1.055340274925	0.977352182951
2	1677	1.055350274925	0.977352169063
2	1680	1.056206274925	0.97694794684
2	1690	1.056216274925	0.976947932951
2	1690	1.056216274925	0.976947932951
2	1699	1.056464274925	0.976803266285
2	1699	1.056464274925	0.976803266285
2	1710	1.056574274925	0.976803113507
2	1715	1.056846274925	0.976674669063
2	1723	1.056856274925	0.976674655174
2	1723	1.056856274925	0.976674655174
2	1731	1.057104274925	0.976529988507
2	1731	1.057104274925	0.976529988507
2	1740	1.057114274925	0.976529974618
2	1747	1.057970274925	0.976125752396
2	1757	1.057980274925	0.976125738507
2	1757	1.057980274925	0.976125738507
2	1766	1.058228274925	0.97598107184
2	1766	1.058228274925	0.97598107184
2	1777	1.058338274925	0.975980919063
2	1782	1.058610274925	0.975852474618
2	1790	1.058620274925	0.975852460729
2	1790	1.058620274925	0.975852460729
2	1798	1.058868274925	0.975707794063
2	1798	1.058868274925	0.975707794063
2	1807	1.058878274925	0.975707780174
2	1810	1.059734274925	0.975303557951
2	1820	1.059744274925	0.975303544063
2	1820	1.059744274925	0.975303544063
2	1829	1.059992274925	0.975158877396
2	1829	1.059992274925	0.975158877396
2	1840	1.060122274925	0.97515869684
2	1845	1.060394274925	0.975030252396
2	1853	1.060404274925	0.975030238507
2	1853	1.060404274925	0.975030238507
2	1861	1.060652274925	0.97488557184
2	1861	1.060652274925	0.97488557184
2	1870	1.060662274925	0.974885557951
2	1873	1.061518274925	0.974481335729
2	1883	1.061528274925	0.97448132184
2	1883	1.061528274925	0.97448132184
2	1892	1.061776274925	0.974336655174
2	1892	1.061776274925	0.974336655174
2	1900	1.062026274925	0.974336307951
2	1900	1.062026274925	0.974336307951
2	1910	1.062882274925	0.973836974618
2	1910	1.062882274925	0.973836974618
2	1925	1.063032274925	0.973836766285
2	1930	1.063304274925	0.97370832184
2	1938	1.063314274925	0.973708307951
2	1938	1.063314274925	0.973708307951
2	1946	1.063562274925	0.973563641285
2	1946	1.063562274925	0.973563641285
2	1955	1.063572274925	0.973563627396
2	1958	1.064428274925	0.973159405174
2	1968	1.064438274925	0.973159391285
2	1968	1.064438274925	0.973159391285
2	1977	1.064686274925	0.973014724618
2	1977	1.064686274925	0.973014724618
2	1988	1.064816274925	0.973014544063
2	1993	1.065088274925	0.972886099618
2	2001	1.065098274925	0.972886085729
2	2001	1.065098274925	0.972886085729
2	2009	1.065346274925	0.972741419063
2	2009	1.065346274925	0.972741419063
2	2018	1.065356274925	0.972741405174
2	2021	1.066212274925	0.972337182951
2	2031	1.066222274925	0.972337169063
2	2031	1.066222274925	0.972337169063
2	2040	1.066470274925	0.972192502396
2	2040	1.066470274925	0.972192502396
2	2051	1.066760274925	0.972192099618
2	2056	1.067032274925	0.972063655174
2	2064	1.067042274925	0.972063641285
2	2064	1.067042274925	0.972063641285
2	2072	1.067290274925	0.971918974618
2	2072	1.067290274925	0.971918974618
2	2081	1.067300274925	0.971918960729
2	2084	1.068156274925	0.971514738507
2	2094	1.068166274925	0.971514724618
2	2094	1.068166274925	0.971514724618
2	2105	1.068414274925	0.971370057951
2	2105	1.068414274925	0.971370057951
2	2116	1.068684274925	0.971369682951
2	2121	1.068956274925	0.971241238507
2	2129	1.068966274925	0.971241224618
2	2129	1.068966274925	0.971241224618
2	2137	1.069214274925	0.971096557951
2	2137	1.069214274925	0.971096557951
2	2146	1.069224274925	0.971096544063
2	2149	1.070080274925	0.97069232184
2	2159	1.070090274925	0.970692307951
2	2159	1.070090274925	0.970692307951
2	2168	1.070338274925	0.970547641285
2	2168	1.070338274925	0.970547641285
2	2179	1.070508274925	0.970547405174
2	2184	1.070780274925	0.970418960729
2	2192	1.070790274925	0.97041894684
2	2192	1.070790274925	0.97041894684
2	2200	1.071038274925	0.970274280174
2	2200	1.071038274925	0.970274280174
2	2209	1.071048274925	0.970274266285
2	2214	1.071904274925	0.969870044063
2	2224	1.071914274925	0.969870030174
2	2224	1.071914274925	0.969870030174
2	2233	1.072162274925	0.969725363507
2	2233	1.072162274925	0.969725363507
2	2244	1.072272274925	0.969725210729
2	2249	1.072544274925	0.969596766285
2	2257	1.072554274925	0.969596752396
2	2257	1.072554274925	0.969596752396
2	2265	1.072802274925	0.969452085729
2	2265	1.072802274925	0.969452085729
2	2274	1.072812274925	0.96945207184
2	2277	1.073668274925	0.969047849618
2	2287	1.073678274925	0.969047835729
2	2287	1.073678274925	0.969047835729
2	2296	1.073926274925	0.968903169063
2	2296	1.073926274925	0.968903169063
2	2304	1.074136274925	0.968902877396
2	2304	1.074136274925	0.968902877396
2	2314	1.074992274925	0.968403544063
2	2314	1.074992274925	0.968403544063
2	2328	1.075222274925	0.968403224618
2	2332	1.075494274925	0.968274780174
2	2340	1.075504274925	0.968274766285
2	2340	1.075504274925	0.968274766285
2	2348	1.075752274925	0.968130099618
2	2348	1.075752274925	0.968130099618
2	2357	1.075762274925	0.968130085729
2	2360	1.076618274925	0.967725863507
2	2370	1.076628274925	0.967725849618
2	2370	1.076628274925	0.967725849618
2	2379	1.076876274925	0.967581182951
2	2379	1.076876274925	0.967581182951
2	2389	1.077446274925	0.967580391285
2	2389	1.077446274925	0.967580391285
2	2398	1.078302274925	0.967081057951
2	2398	1.078302274925	0.967081057951
2	2408	1.078552274925	0.967080710729
2	2408	1.078552274925	0.967080710729
2	2416	1.079408274925	0.966581377396
2	2416	1.079408274925	0.966581377396
2	2426	1.079658274925	0.966581030174
2	2426	1.079658274925	0.966581030174
2	2436	1.080514274925	0.96608169684
2	2436	1.080514274925	0.96608169684
2	2450	1.080564274925	0.966081627396
2	2454	1.080836274925	0.965953182951
2	2462	1.080846274925	0.965953169063
2	2462	1.080846274925	0.965953169063
2	2470	1.081094274925	0.965808502396
2	2470	1.081094274925	0.965808502396
2	2479	1.081104274925	0.965808488507
2	2484	1.081960274925	0.965404266285
2	2494	1.081970274925	0.965404252396
2	2494	1.081970274925	0.965404252396
2	2503	1.082218274925	0.965259585729
2	2503	1.082218274925	0.965259585729
2	2514	1.082308274925	0.965259460729
2	2519	1.082580274925	0.965131016285
2	2527	1.082590274925	0.965131002396
2	2527	1.082590274925	0.965131002396
2	2537	1.082838274925	0.964986335729
2	2537	1.082838274925	0.964986335729
2	2546	1.082848274925	0.96498632184
2	2551	1.083704274925	0.964582099618
2	2561	1.083714274925	0.964582085729
2	2561	1.083714274925	0.964582085729
2	2572	1.083962274925	0.964437419063
2	2572	1.083962274925	0.964437419063
2	2583	1.084072274925	0.964437266285
2	2588	1.084344274925	0.96430882184
2	2596	1.084354274925	0.964308807951
2	2596	1.084354274925	0.964308807951
2	2606	1.084602274925	0.964164141285
2	2606	1.084602274925	0.964164141285
2	2615	1.084612274925	0.964164127396
2	2618	1.085468274925	0.963759905174
2	2628	1.085478274925	0.963759891285
2	2628	1.085478274925	0.963759891285
2	2637	1.085726274925	0.963615224618
2	2637	1.085726274925	0.963615224618
2	2648	1.086036274925	0.963614794063
2	2653	1.086308274925	0.963486349618
2	2661	1.086318274925	0.963486335729
2	2661	1.086318274925	0.963486335729
2	2671	1.086566274925	0.963341669063
2	2671	1.086566274925	0.963341669063
2	2680	1.086576274925	0.963341655174
2	2683	1.087432274925	0.962937432951
2	2693	1.087442274925	0.962937419063
2	2693	1.087442274925	0.962937419063
2	2702	1.087690274925	0.962792752396
2	2702	1.087690274925	0.962792752396
2	2710	1.087780274925	0.962792627396
2	2710	1.087780274925	0.962792627396
2	2720	1.088636274925	0.962293294063
2	2720	1.088636274925	0.962293294063
2	2735	1.088826274925	0.962293030174
2	2742	1.089098274925	0.962164585729
2	2750	1.089108274925	0.96216457184
2	2750	1.089108274925	0.96216457184
2	2758	1.089356274925	0.962019905174
2	2758	1.089356274925	0.962019905174
2	2767	1.089366274925	0.962019891285
2	2772	1.090222274925	0.961615669063
2	2782	1.090232274925	0.961615655174
2	2782	1.090232274925	0.961615655174
2	2791	1.090480274925	0.961470988507
2	2791	1.090480274925	0.961470988507
2	2802	1.090610274925	0.961470807951
2	2807	1.090882274925	0.961342363507
2	2815	1.090892274925	0.961342349618
2	2815	1.090892274925	0.961342349618
2	2823	1.091140274925	0.961197682951
2	2823	1.091140274925	0.961197682951
2	2832	1.091150274925	0.961197669063
2	2835	1.092006274925	0.96079344684
2	2845	1.092016274925	0.960793432951
2	2845	1.092016274925	0.960793432951
2	2854	1.092264274925	0.960648766285
2	2854	1.092264274925	0.960648766285
2	2862	1.092494274925	0.96064844684
2	2862	1.092494274925	0.96064844684
2	2872	1.093350274925	0.960149113507
2	2872	1.093350274925	0.960149113507
2	2884	1.093660274925	0.960148682951
2	2884	1.093660274925	0.960148682951
2	2894	1.094516274925	0.959649349618
2	2894	1.094516274925	0.959649349618
2	2909	1.094626274925	0.95964919684
2	2914	1.094898274925	0.959520752396
2	2922	1.094908274925	0.959520738507
2	2922	1.094908274925	0.959520738507
2	2930	1.095156274925	0.95937607184
2	2930	1.095156274925	0.95937607184
2	2941	1.095166274925	0.959376057951
2	2944	1.096022274925	0.958971835729
2	2954	1.096032274925	0.95897182184
2	2954	1.096032274925	0.95897182184
2	2963	1.096280274925	0.958827155174
2	2963	1.096280274925	0.958827155174
2	2974	1.096370274925	0.958827030174
2	2979	1.096642274925	0.958698585729
2	2987	1.096652274925	0.95869857184
2	2987	1.096652274925	0.95869857184
2	2995	1.096900274925	0.958553905174
2	2995	1.096900274925	0.958553905174
2	3004	1.096910274925	0.958553891285
2	3009	1.097766274925	0.958149669063
2	3019	1.097776274925	0.958149655174
2	3019	1.097776274925	0.958149655174
2	3028	1.098024274925	0.958004988507
2	3028	1.098024274925	0.958004988507
2	3039	1.098294274925	0.958004613507
2	3044	1.098566274925	0.957876169063
2	3052	1.098576274925	0.957876155174
2	3052	1.098576274925	0.957876155174
2	3060	1.098824274925	0.957731488507
2	3060	1.098824274925	0.957731488507
2	3069	1.098834274925	0.957731474618
2	3072	1.099690274925	0.957327252396
2	3082	1.099700274925	0.957327238507
2	3082	1.099700274925	0.957327238507
2	3093	1.099948274925	0.95718257184
2	3093	1.099948274925	0.95718257184
2	3104	1.100378274925	0.957181974618
2	3109	1.100650274925	0.957053530174
2	3117	1.100660274925	0.957053516285
2	3117	1.100660274925	0.957053516285
2	3125	1.100908274925	0.956908849618
2	3125	1.100908274925	0.956908849618
2	3134	1.100918274925	0.956908835729
2	3139	1.101774274925	0.956504613507
2	3149	1.101784274925	0.956504599618
2	3149	1.101784274925	0.956504599618
2	3158	1.102032274925	0.956359932951
2	3158	1.102032274925	0.956359932951
2	3169	1.102102274925	0.956359835729
2	3176	1.102374274925	0.956231391285
2	3184	1.102384274925	0.956231377396
2	3184	1.102384274925	0.956231377396
2	3192	1.102632274925	0.956086710729
2	3192	1.102632274925	0.956086710729
2	3201	1.102642274925	0.95608669684
2	3204	1.103498274925	0.955682474618
2	3214	1.103508274925	0.955682460729
2	3214	1.103508274925	0.955682460729
2	3223	1.103756274925	0.955537794063
2	3223	1.103756274925	0.955537794063
2	3231	1.103986274925	0.955537474618
2	3231	1.103986274925	0.955537474618
2	3241	1.104842274925	0.955038141285
2	3241	1.104842274925	0.955038141285
2	3253	1.104892274925	0.95503807184
2	3253	1.104892274925	0.95503807184
2	3263	1.105748274925	0.954538738507
2	3263	1.105748274925	0.954538738507
2	3278	1.105818274925	0.954538641285
2	3285	1.106090274925	0.95441019684
2	3293	1.106100274925	0.954410182951
2	3293	1.106100274925	0.954410182951
2	3301	1.106348274925	0.954265516285
2	3301	1.106348274925	0.954265516285
2	3310	1.106358274925	0.954265502396
2	3315	1.107214274925	0.953861280174
2	3325	1.107224274925	0.953861266285
2	3325	1.107224274925	0.953861266285
2	3334	1.107472274925	0.953716599618
2	3334	1.107472274925	0.953716599618
2	3345	1.107782274925	0.953716169063
2	3350	1.108054274925	0.953587724618
2	3358	1.108064274925	0.953587710729
2	3358	1.108064274925	0.953587710729
2	3366	1.108312274925	0.953443044063
2	3366	1.108312274925	0.953443044063
2	3375	1.108322274925	0.953443030174
2	3378	1.109178274925	0.953038807951
2	3388	1.109188274925	0.953038794063
2	3388	1.109188274925	0.953038794063
2	3397	1.109436274925	0.952894127396
2	3397	1.109436274925	0.952894127396
2	3408	1.109506274925	0.952894030174
2	3413	1.109778274925	0.952765585729
2	3421	1.109788274925	0.95276557184
2	3421	1.109788274925	0.95276557184
2	3429	1.110036274925	0.952620905174
2	3429	1.110036274925	0.952620905174
2	3438	1.110046274925	0.952620891285
2	3441	1.110902274925	0.952216669063
2	3451	1.110912274925	0.952216655174
2	3451	1.110912274925	0.952216655174
2	3460	1.111160274925	0.952071988507
2	3460	1.111160274925	0.952071988507
2	3470	1.111510274925	0.952071502396
2	3470	1.111510274925	0.952071502396
2	3479	1.112366274925	0.951572169063
2	3479	1.112366274925	0.951572169063
2	3493	1.112436274925	0.95157207184
2	3497	1.112708274925	0.951443627396
2	3505	1.112718274925	0.951443613507
2	3505	1.112718274925	0.951443613507
2	3513	1.112966274925	0.95129894684
2	3513	1.112966274925	0.95129894684
2	3522	1.112976274925	0.951298932951
2	3527	1.113832274925	0.950894710729
2	3537	1.113842274925	0.95089469684
2	3537	1.113842274925	0.95089469684
2	3548	1.114090274925	0.950750030174
2	3548	1.114090274925	0.950750030174
2	3559	1.114140274925	0.950749960729
2	3564	1.114412274925	0.950621516285
2	3572	1.114422274925	0.950621502396
2	3572	1.114422274925	0.950621502396
2	3580	1.114670274925	0.950476835729
2	3580	1.114670274925	0.950476835729
2	3589	1.114680274925	0.95047682184
2	3594	1.115536274925	0.950072599618
2	3604	1.115546274925	0.950072585729
2	3604	1.115546274925	0.950072585729
2	3613	1.115794274925	0.949927919063
2	3613	1.115794274925	0.949927919063
2	3624	1.116024274925	0.949927599618
2	3629	1.116296274925	0.949799155174
2	3637	1.116306274925	0.949799141285
2	3637	1.116306274925	0.949799141285
2	3645	1.116554274925	0.949654474618
2	3645	1.116554274925	0.949654474618
2	3654	1.116564274925	0.949654460729
2	3657	1.117420274925	0.949250238507
2	3667	1.117430274925	0.949250224618
2	3667	1.117430274925	0.949250224618
2	3676	1.117678274925	0.949105557951
2	3676	1.117678274925	0.949105557951
2	3684	1.118048274925	0.949105044063
2	3684	1.118048274925	0.949105044063
2	3694	1.118904274925	0.948605710729
2	3694	1.118904274925	0.948605710729
2	3706	1.118994274925	0.948605585729
2	3706	1.118994274925	0.948605585729
2	3718	1.119850274925	0.948106252396
2	3718	1.119850274925	0.948106252396
2	3733	1.119980274925	0.94810607184
2	3740	1.120252274925	0.947977627396
2	3748	1.120262274925	0.947977613507
2	3748	1.120262274925	0.947977613507
2	3758	1.120510274925	0.94783294684
2	3758	1.120510274925	0.94783294684
2	3767	1.120520274925	0.947832932951
2	3770	1.121376274925	0.947428710729
2	3780	1.121386274925	0.94742869684
2	3780	1.121386274925	0.94742869684
2	3791	1.121634274925	0.947284030174
2	3791	1.121634274925	0.947284030174
2	3802	1.121704274925	0.947283932951
2	3807	1.121976274925	0.947155488507
2	3815	1.121986274925	0.947155474618
2	3815	1.121986274925	0.947155474618
2	3823	1.122234274925	0.947010807951
2	3823	1.122234274925	0.947010807951
2	3832	1.122244274925	0.947010794063
2	3835	1.123100274925	0.94660657184
2	3845	1.123110274925	0.946606557951
2	3845	1.123110274925	0.946606557951
2	3854	1.123358274925	0.946461891285
2	3854	1.123358274925	0.946461891285
2	3865	1.123668274925	0.946461460729
2	3870	1.123940274925	0.946333016285
2	3878	1.123950274925	0.946333002396
2	3878	1.123950274925	0.946333002396
2	3886	1.124198274925	0.946188335729
2	3886	1.124198274925	0.946188335729
2	3895	1.124208274925	0.94618832184
2	3898	1.125064274925	0.945784099618
2	3908	1.125074274925	0.945784085729
2	3908	1.125074274925	0.945784085729
2	3917	1.125322274925	0.945639419063
2	3917	1.125322274925	0.945639419063
2	3928	1.125452274925	0.945639238507
2	3933	1.125724274925	0.945510794063
2	3941	1.125734274925	0.945510780174
2	3941	1.125734274925	0.945510780174
2	3949	1.125982274925	0.945366113507
2	3949	1.125982274925	0.945366113507
2	3958	1.125992274925	0.945366099618
2	3961	1.126848274925	0.944961877396
2	3971	1.126858274925	0.944961863507
2	3971	1.126858274925	0.944961863507
2	3980	1.127106274925	0.94481719684
2	3980	1.127106274925	0.94481719684
2	3993	1.127436274925	0.944816738507
2	3998	1.127708274925	0.944688294063
2	4006	1.127718274925	0.944688280174
2	4006	1.127718274925	0.944688280174
2	4014	1.127966274925	0.944543613507
2	4014	1.127966274925	0.944543613507
2	4023	1.127976274925	0.944543599618
2	4026	1.128832274925	0.944139377396
2	4036	1.128842274925	0.944139363507
2	4036	1.128842274925	0.944139363507
2	4045	1.129090274925	0.94399469684
2	4045	1.129090274925	0.94399469684
2	4056	1.129460274925	0.943994182951
2	4061	1.129732274925	0.943865738507
2	4069	1.129742274925	0.943865724618
2	4069	1.129742274925	0.943865724618
2	4077	1.129990274925	0.943721057951
2	4077	1.129990274925	0.943721057951
2	4086	1.130000274925	0.943721044063
2	4089	1.130856274925	0.94331682184
2	4099	1.130866274925	0.943316807951
2	4099	1.130866274925	0.943316807951
2	4108	1.131114274925	0.943172141285
2	4108	1.131114274925	0.943172141285
2	4116	1.131304274925	0.943171877396
2	4116	1.131304274925	0.943171877396
2	4126	1.132160274925	0.942672544063
2	4126	1.132160274925	0.942672544063
2	4142	1.132310274925	0.942672335729
2	4146	1.132582274925	0.942543891285
2	4154	1.132592274925	0.942543877396
2	4154	1.132592274925	0.942543877396
2	4162	1.132840274925	0.942399210729
2	4162	1.132840274925	0.942399210729
2	4171	1.132850274925	0.94239919684
2	4174	1.133706274925	0.941994974618
2	4184	1.133716274925	0.941994960729
2	4184	1.133716274925	0.941994960729
2	4195	1.133964274925	0.941850294063
2	4195	1.133964274925	0.941850294063
2	4203	1.134134274925	0.941850057951
2	4203	1.134134274925	0.941850057951
2	4213	1.134990274925	0.941350724618
2	4213	1.134990274925	0.941350724618
2	4225	1.135040274925	0.941350655174
2	4225	1.135040274925	0.941350655174
2	4235	1.135896274925	0.94085132184
2	4235	1.135896274925	0.94085132184
2	4247	1.136086274925	0.940851057951
2	4247	1.136086274925	0.940851057951
2	4257	1.136942274925	0.940351724618
2	4257	1.136942274925	0.940351724618
2	4272	1.137152274925	0.940351432951
2	4277	1.137424274925	0.940222988507
2	4285	1.137434274925	0.940222974618
2	4285	1.137434274925	0.940222974618
2	4293	1.137682274925	0.940078307951
2	4293	1.137682274925	0.940078307951
2	4302	1.137692274925	0.940078294063
2	4307	1.138548274925	0.93967407184
2	4317	1.138558274925	0.939674057951
2	4317	1.138558274925	0.939674057951
2	4326	1.138806274925	0.939529391285
2	4326	1.138806274925	0.939529391285
2	4337	1.138976274925	0.939529155174
2	4342	1.139248274925	0.939400710729
2	4350	1.139258274925	0.93940069684
2	4350	1.139258274925	0.93940069684
2	4358	1.139506274925	0.939256030174
2	4358	1.139506274925	0.939256030174
2	4367	1.139516274925	0.939256016285
2	4370	1.140372274925	0.938851794063
2	4380	1.140382274925	0.938851780174
2	4380	1.140382274925	0.938851780174
2	4389	1.140630274925	0.938707113507
2	4389	1.140630274925	0.938707113507
2	4402	1.140800274925	0.938706877396
2	4409	1.141072274925	0.938578432951
2	4417	1.141082274925	0.938578419063
2	4417	1.141082274925	0.938578419063
2	4425	1.141330274925	0.938433752396
2	4425	1.141330274925	0.938433752396
2	4434	1.141340274925	0.938433738507
2	4441	1.142196274925	0.938029516285
2	4451	1.142206274925	0.938029502396
2	4451	1.142206274925	0.938029502396
2	4460	1.142454274925	0.937884835729
2	4460	1.142454274925	0.937884835729
2	4468	1.142544274925	0.937884710729
2	4468	1.142544274925	0.937884710729
2	4478	1.143400274925	0.937385377396
2	4478	1.143400274925	0.937385377396
2	4492	1.143610274925	0.937385085729
2	4492	1.143610274925	0.937385085729
2	4504	1.144466274925	0.936885752396
2	4504	1.144466274925	0.936885752396
2	4519	1.144776274925	0.93688532184
2	4524	1.145048274925	0.936756877396
2	4532	1.145058274925	0.936756863507
2	4532	1.145058274925	0.936756863507
2	4540	1.145306274925	0.93661219684
2	4540	1.145306274925	0.93661219684
2	4549	1.145316274925	0.936612182952
2	4556	1.146172274925	0.936207960729
2	4566	1.146182274925	0.93620794684
2	4566	1.146182274925	0.93620794684