version 2
run One-0-20090819-10:05:28-7321
attr configname One
attr datetime 20090819-10:05:28
attr experiment One
attr inifile omnetpp.ini
attr iterationvars ""
attr iterationvars2 $repetition=0
attr measurement ""
attr network sim
attr processid 7321
attr repetition 0
attr replication #0
attr resultdir results
attr runnumber 0
attr seedset 0

vector 2  sim.host[0].batteryStats  capacity(relative)  ETV
vector 7  sim.host[1].batteryStats  capacity(relative)  ETV
2	0	0.666666666667
2	0	0.666666666667
2	1	0.6665
2	2	0.666333333333
2	2.8797406746	0.666186709888
2	2.8805966746	0.666186510154
2	2.88745470861	0.666185367149
2	2.88772670861	0.666185267415
2	2.88773670861	0.666185265749
2	2.88798470861	0.666185207882
2	2.88799470861	0.666185206215
2	2.88885070861	0.666184892349
2	2.88886070861	0.666184890682
2	2.88910870861	0.666184832815
2	3	0.666166350933
2	4	0.665999684267
2	4.79808200113	0.6658666706
2	4.79893800113	0.665866356733
2	4.80857730357	0.665864750183
2	4.80884930357	0.665864686716
2	4.80885930357	0.665864685049
2	4.80910730357	0.665864594116
2	4.80911730357	0.665864592449
2	4.80997330357	0.665864392716
2	4.80998330357	0.665864391049
2	4.81023130357	0.665864300116
2	5	0.665832672
2	6	0.665666005333
2	7	0.665499338667
2	8	0.665332672
2	9	0.665166005333
2	10	0.664999338667
2	10	0.664999338667
7	0	0.666666666667
7	0	0.666666666667
7	1	0.6665
7	2	0.666333333333
7	2.8797406746	0.666186709888
7	2.8805966746	0.666186396021
7	2.88745470861	0.666185253015
7	2.88772670861	0.666185189549
7	2.88773670861	0.666185187882
7	2.88798470861	0.666185096949
7	2.88799470861	0.666185095282
7	2.88885070861	0.666184895549
7	2.88886070861	0.666184893882
7	2.88910870861	0.666184802949
7	3	0.666166321067
7	4	0.6659996544
7	4.79808200113	0.665866640733
7	4.79893800113	0.665866441
7	4.80857730357	0.665864834449
7	4.80884930357	0.665864734716
7	4.80885930357	0.665864733049
7	4.80910730357	0.665864675183
7	4.80911730357	0.665864673516
7	4.80997330357	0.665864359649
7	4.80998330357	0.665864357983
7	4.81023130357	0.665864300116
7	5	0.665832672
7	6	0.665666005333
7	7	0.665499338667
7	8	0.665332672
7	9	0.665166005333
7	10	0.664999338667