version 2
run One-0-20110329-15:17:50-9087
attr configname One
attr datetime 20110329-15:17:50
attr experiment One
attr inifile omnetpp.ini
attr iterationvars ""
attr iterationvars2 $repetition=0
attr measurement ""
attr network sim
attr processid 9087
attr repetition 0
attr replication #0
attr resultdir results
attr runnumber 0
attr seedset 0

vector 2  sim.host[0].batteryStats  capacity(relative)  ETV
vector 8  sim.host[1].batteryStats  capacity(relative)  ETV
2	0	0	0.666666666667
2	0	0	0.666666666667
2	7	1	0.6665
2	9	2	0.666333333333
2	16	2.62802922821	0.666228661795
2	21	2.62888522821	0.666228347929
2	37	2.636711131295	0.666227043611
2	41	2.636983131295	0.666226980145
2	45	2.636993131295	0.666226978478
2	50	2.637241131295	0.666226887545
2	59	2.637251131295	0.666226885878
2	63	2.638107131295	0.666226686145
2	69	2.638117131295	0.666226684478
2	74	2.638365131295	0.666226593545
2	84	3	0.666166321067
2	86	4	0.6659996544
2	88	5	0.665832987733
2	90	6	0.665666321067
2	92	7	0.6654996544
2	94	8	0.665332987733
2	104	8.687756131022	0.665218361711
2	109	8.688612131022	0.665218161978
2	119	8.692013425648	0.665217595096
2	124	8.692285425648	0.665217495362
2	133	8.692295425648	0.665217493696
2	137	8.692543425648	0.665217435829
2	141	8.692553425648	0.665217434162
2	146	8.693409425648	0.665217120296
2	157	8.693419425648	0.665217118629
2	162	8.693667425648	0.665217060762
2	169	9	0.665166005333
2	171	10	0.664999338667
2	172	10	0.664999338667
8	0	0	0.666666666667
8	0	0	0.666666666667
8	8	1	0.6665
8	10	2	0.666333333333
8	19	2.62802922821	0.666228661795
8	24	2.62888522821	0.666228462062
8	34	2.636711131295	0.666227157745
8	39	2.636983131295	0.666227058011
8	48	2.636993131295	0.666227056345
8	52	2.637241131295	0.666226998478
8	56	2.637251131295	0.666226996811
8	61	2.638107131295	0.666226682945
8	72	2.638117131295	0.666226681278
8	77	2.638365131295	0.666226623411
8	85	3	0.666166350933
8	87	4	0.665999684267
8	89	5	0.6658330176
8	91	6	0.665666350933
8	93	7	0.665499684267
8	95	8	0.6653330176
8	101	8.687756131022	0.665218391578
8	106	8.688612131022	0.665218077711
8	122	8.692013425648	0.665217510829
8	126	8.692285425648	0.665217447362
8	130	8.692295425648	0.665217445696
8	135	8.692543425648	0.665217354762
8	144	8.692553425648	0.665217353096
8	148	8.693409425648	0.665217153362
8	154	8.693419425648	0.665217151696
8	159	8.693667425648	0.665217060762
8	170	9	0.665166005333
8	172	10	0.664999338667
