version 2
run Three-0-20090924-13:56:35-18867
attr configname Three
attr datetime 20090924-13:56:35
attr experiment Three
attr inifile omnetpp.ini
attr iterationvars ""
attr iterationvars2 $repetition=0
attr measurement ""
attr network sim
attr processid 18867
attr repetition 0
attr replication #0
attr resultdir results
attr runnumber 0
attr seedset 0

vector 2  sim.host[0].batteryStats  capacity(relative)  ETV
vector 7  sim.host[1].batteryStats  capacity(relative)  ETV
2	0	0	0.666666666667
2	0	0	0.666666666667
2	7	1	0.6665
2	9	2	0.666333333333
2	19	2.880054674599	0.666186657554
2	21	2.880910674599	0.666186457821
2	28	3	0.6661666096
2	30	4	0.665999942933
2	39	4.798396001126	0.665866876933
2	41	4.799252001126	0.665866563066
2	49	5	0.665833105067
2	51	6	0.6656664384
2	53	7	0.665499771733
2	55	8	0.665333105067
2	57	9	0.6651664384
2	59	10	0.664999771733
2	60	10	0.664999771733
7	0	0	0.666666666667
7	0	0	0.666666666667
7	8	1	0.6665
7	10	2	0.666333333333
7	18	2.880054674599	0.666186657554
7	20	2.880910674599	0.666186343688
7	29	3	0.666166495467
7	31	4	0.6659998288
7	40	4.798396001126	0.6658667628
7	42	4.799252001126	0.665866563066
7	50	5	0.665833105067
7	52	6	0.6656664384
7	54	7	0.665499771733
7	56	8	0.665333105067
7	58	9	0.6651664384
7	60	10	0.664999771733
