version 2
run Seven-0-20090922-16:16:48-16898
attr configname Seven
attr datetime 20090922-16:16:48
attr experiment Seven
attr inifile omnetpp.ini
attr iterationvars ""
attr iterationvars2 $repetition=0
attr measurement ""
attr network sim
attr processid 16898
attr repetition 0
attr replication #0
attr resultdir results
attr runnumber 0
attr seedset 0

vector 2  sim.host[0].batteryStats  capacity(relative)  ETV
vector 7  sim.host[1].batteryStats  capacity(relative)  ETV
vector 12  sim.host[2].batteryStats  capacity(relative)  ETV
2	0	0	1
2	0	0	1
2	10	0.1	0.986111111111
2	13	0.2	0.972222222222
2	16	0.3	0.958333333333
2	19	0.4	0.944444444444
2	22	0.5	0.930555555556
2	25	0.6	0.916666666667
2	28	0.7	0.902777777778
2	31	0.8	0.888888888889
2	34	0.9	0.875
2	37	1	0.861111111111
2	47	1.006556273925	0.86020051751
2	50	1.007412273925	0.860200041955
2	71	1.014391132202	0.859230756083
2	74	1.014663132202	0.859230680527
2	84	1.014673132202	0.859229291639
2	87	1.014921132202	0.859229153861
2	99	1.014931132202	0.859227764972
2	102	1.015787132202	0.859227527194
2	114	1.015797132202	0.859226138305
2	118	1.016045132202	0.859226000527
2	133	1.016554652962	0.859155233755
2	137	1.016826652962	0.8591551582
2	147	1.016836652962	0.859153769311
2	150	1.017084652962	0.859153631533
2	162	1.017094652962	0.859152242644
2	165	1.017950652962	0.859152004866
2	177	1.017960652962	0.859150615977
2	181	1.018208652962	0.8591504782
2	194	1.1	0.847790568889
2	197	1.2	0.83390168
2	200	1.3	0.820012791111
2	203	1.4	0.806123902222
2	214	1.405314302156	0.805385804701
2	217	1.406170302156	0.805385566923
2	237	1.413302505843	0.804394983077
2	240	1.413574505843	0.804394907522
2	251	1.413584505843	0.804393518633
2	254	1.413832505843	0.804393449744
2	265	1.413842505843	0.804392060855
2	270	1.414698505843	0.804391823077
2	283	1.414708505843	0.804390434188
2	287	1.414956505843	0.8043903653
2	299	1.415006505843	0.804383420855
2	304	1.415278505843	0.804383269744
2	316	1.415288505843	0.804381880855
2	319	1.415536505843	0.804381811966
2	329	1.415546505843	0.804380423077
2	332	1.416402505843	0.804379947522
2	346	1.416412505843	0.804378558633
2	350	1.416660505843	0.804378489744
2	365	1.5	0.79280356
2	368	1.6	0.778914671111
2	371	1.7	0.765025782222
2	374	1.8	0.751136893333
2	377	1.9	0.737248004444
2	380	2	0.723359115556
2	383	2.1	0.709470226667
2	386	2.2	0.695581337778
2	389	2.3	0.681692448889
2	392	2.4	0.66780356
2	395	2.5	0.653914671111
2	398	2.6	0.640025782222
2	401	2.7	0.626136893333
2	404	2.8	0.612248004444
2	407	2.9	0.598359115556
2	410	3	0.584470226667
2	413	3.1	0.570581337778
2	416	3.2	0.556692448889
2	419	3.3	0.54280356
2	422	3.4	0.528914671111
2	425	3.5	0.515025782222
2	428	3.6	0.501136893333
2	431	3.7	0.487248004444
2	434	3.8	0.473359115556
2	436	3.9	0.459470226667
2	438	4	0.445581337778
2	440	4.1	0.431692448889
2	442	4.2	0.41780356
2	444	4.3	0.403914671111
2	446	4.4	0.390025782222
2	448	4.5	0.376136893333
2	450	4.6	0.362248004444
2	452	4.7	0.348359115556
2	454	4.8	0.334470226667
2	456	4.9	0.320581337778
2	458	5	0.306692448889
2	460	5.1	0.29280356
2	462	5.2	0.278914671111
2	464	5.3	0.265025782222
2	466	5.4	0.251136893333
2	468	5.5	0.237248004444
2	470	5.6	0.223359115556
2	472	5.7	0.209470226667
2	474	5.8	0.195581337778
2	476	5.9	0.181692448889
2	478	6	0.16780356
2	480	6.1	0.153914671111
2	482	6.2	0.140025782222
2	484	6.3	0.126136893333
2	486	6.4	0.112248004444
2	488	6.5	0.0983591155556
2	490	6.6	0.0844702266667
2	492	6.7	0.0705813377778
2	494	6.8	0.0566924488889
2	496	6.9	0.04280356
2	498	7	0.0289146711111
2	500	7.1	0.0150257822222
2	502	7.2	0.00113689333333
2	504	7.3	0
7	0	0	1
7	0	0	1
7	11	0.1	0.986111111111
7	14	0.2	0.972222222222
7	17	0.3	0.958333333333
7	20	0.4	0.944444444444
7	23	0.5	0.930555555556
7	26	0.6	0.916666666667
7	29	0.7	0.902777777778
7	32	0.8	0.888888888889
7	35	0.9	0.875
7	38	1	0.861111111111
7	48	1.006556273925	0.86020051751
7	51	1.007412273925	0.860200279733
7	72	1.014391132202	0.859230993861
7	75	1.014663132202	0.859230918305
7	85	1.014673132202	0.859229529416
7	88	1.014921132202	0.859229460527
7	100	1.014931132202	0.859228071639
7	103	1.015787132202	0.859227833861
7	115	1.015797132202	0.859226444972
7	119	1.016045132202	0.859226376083
7	132	1.016554652962	0.859155609311
7	136	1.016826652962	0.8591554582
7	148	1.016836652962	0.859154069311
7	151	1.017084652962	0.859154000422
7	161	1.017094652962	0.859152611533
7	164	1.017950652962	0.859152135977
7	178	1.017960652962	0.859150747089
7	182	1.018208652962	0.8591506782
7	195	1.1	0.847790768889
7	198	1.2	0.83390188
7	201	1.3	0.820012991111
7	204	1.4	0.806124102222
7	215	1.405314302156	0.805386004701
7	218	1.406170302156	0.805385766923
7	236	1.413302505843	0.804395183077
7	239	1.413574505843	0.804395031966
7	252	1.413584505843	0.804393643077
7	255	1.413832505843	0.804393574188
7	264	1.413842505843	0.8043921853
7	269	1.414698505843	0.804391709744
7	284	1.414708505843	0.804390320855
7	288	1.414956505843	0.804390251966
7	300	1.415006505843	0.804383307522
7	305	1.415278505843	0.804383231966
7	317	1.415288505843	0.804381843077
7	320	1.415536505843	0.804381774188
7	330	1.415546505843	0.8043803853
7	333	1.416402505843	0.804380147522
7	347	1.416412505843	0.804378758633
7	351	1.416660505843	0.804378689744
7	366	1.5	0.79280376
7	369	1.6	0.778914871111
7	372	1.7	0.765025982222
7	375	1.8	0.751137093333
7	378	1.9	0.737248204444
7	381	2	0.723359315556
7	384	2.1	0.709470426667
7	387	2.2	0.695581537778
7	390	2.3	0.681692648889
7	393	2.4	0.66780376
7	396	2.5	0.653914871111
7	399	2.6	0.640025982222
7	402	2.7	0.626137093333
7	405	2.8	0.612248204444
7	408	2.9	0.598359315556
7	411	3	0.584470426667
7	414	3.1	0.570581537778
7	417	3.2	0.556692648889
7	420	3.3	0.54280376
7	423	3.4	0.528914871111
7	426	3.5	0.515025982222
7	429	3.6	0.501137093333
7	432	3.7	0.487248204444
7	435	3.8	0.473359315556
7	437	3.9	0.459470426667
7	439	4	0.445581537778
7	441	4.1	0.431692648889
7	443	4.2	0.41780376
7	445	4.3	0.403914871111
7	447	4.4	0.390025982222
7	449	4.5	0.376137093333
7	451	4.6	0.362248204444
7	453	4.7	0.348359315556
7	455	4.8	0.334470426667
7	457	4.9	0.320581537778
7	459	5	0.306692648889
7	461	5.1	0.29280376
7	463	5.2	0.278914871111
7	465	5.3	0.265025982222
7	467	5.4	0.251137093333
7	469	5.5	0.237248204444
7	471	5.6	0.223359315556
7	473	5.7	0.209470426667
7	475	5.8	0.195581537778
7	477	5.9	0.181692648889
7	479	6	0.16780376
7	481	6.1	0.153914871111
7	483	6.2	0.140025982222
7	485	6.3	0.126137093333
7	487	6.4	0.112248204444
7	489	6.5	0.0983593155556
7	491	6.6	0.0844704266667
7	493	6.7	0.0705815377778
7	495	6.8	0.0566926488889
7	497	6.9	0.04280376
7	499	7	0.0289148711111
7	501	7.1	0.0150259822222
7	503	7.2	0.00113709333333
7	505	7.3	0
12	0	0	0.5
12	0	0	0.5
12	12	0.1	0.486111111111
12	15	0.2	0.472222222222
12	18	0.3	0.458333333333
12	21	0.4	0.444444444444
12	24	0.5	0.430555555556
12	27	0.6	0.416666666667
12	30	0.7	0.402777777778
12	33	0.8	0.388888888889
12	36	0.9	0.375
12	39	1	0.361111111111
12	49	1.006556273925	0.36020051751
12	52	1.007412273925	0.360200279733
12	70	1.014391132202	0.359230993861
12	73	1.014663132202	0.35923084275
12	86	1.014673132202	0.359229453861
12	89	1.014921132202	0.359229384972
12	98	1.014931132202	0.359227996083
12	101	1.015787132202	0.359227520527
12	116	1.015797132202	0.359226131639
12	120	1.016045132202	0.35922606275
12	134	1.016554652962	0.359155295977
12	138	1.016826652962	0.359155220422
12	149	1.016836652962	0.359153831533
12	152	1.017084652962	0.359153762644
12	163	1.017094652962	0.359152373755
12	166	1.017950652962	0.359152135977
12	179	1.017960652962	0.359150747089
12	183	1.018208652962	0.3591506782
12	196	1.1	0.347790768889
12	199	1.2	0.33390188
12	202	1.3	0.320012991111
12	205	1.4	0.306124102222
12	213	1.405314302156	0.305386004701
12	216	1.406170302156	0.305385529145
12	238	1.413302505843	0.3043949453
12	241	1.413574505843	0.304394869744
12	250	1.413584505843	0.304393480855
12	253	1.413832505843	0.304393343077
12	266	1.413842505843	0.304391954188
12	271	1.414698505843	0.304391716411
12	282	1.414708505843	0.304390327522
12	286	1.414956505843	0.304390189744
12	301	1.415006505843	0.3043832453
12	306	1.415278505843	0.304383169744
12	315	1.415288505843	0.304381780855
12	318	1.415536505843	0.304381643077
12	331	1.415546505843	0.304380254188
12	334	1.416402505843	0.304380016411
12	345	1.416412505843	0.304378627522
12	349	1.416660505843	0.304378489744
12	367	1.5	0.29280356
12	370	1.6	0.278914671111
12	373	1.7	0.265025782222
12	376	1.8	0.251136893333
12	379	1.9	0.237248004444
12	382	2	0.223359115556
12	385	2.1	0.209470226667
12	388	2.2	0.195581337778
12	391	2.3	0.181692448889
12	394	2.4	0.16780356
12	397	2.5	0.153914671111
12	400	2.6	0.140025782222
12	403	2.7	0.126136893333
12	406	2.8	0.112248004444
12	409	2.9	0.0983591155556
12	412	3	0.0844702266667
12	415	3.1	0.0705813377778
12	418	3.2	0.0566924488889
12	421	3.3	0.04280356
12	424	3.4	0.0289146711111
12	427	3.5	0.0150257822222
12	430	3.6	0.00113689333333
12	433	3.7	0
