version 2
run Eight-0-20110329-15:17:54-9094
attr configname Eight
attr datetime 20110329-15:17:54
attr experiment Eight
attr inifile omnetpp.ini
attr iterationvars ""
attr iterationvars2 $repetition=0
attr measurement ""
attr network sim
attr processid 9094
attr repetition 0
attr replication #0
attr resultdir results
attr runnumber 0
attr seedset 0

vector 2  sim.host[0].batteryStats  capacity(relative)  ETV
vector 8  sim.host[1].batteryStats  capacity(relative)  ETV
vector 14  sim.host[2].batteryStats  capacity(relative)  ETV
vector 20  sim.host[3].batteryStats  capacity(relative)  ETV
vector 26  sim.host[4].batteryStats  capacity(relative)  ETV
vector 32  sim.host[5].batteryStats  capacity(relative)  ETV
vector 38  sim.host[6].batteryStats  capacity(relative)  ETV
vector 44  sim.host[7].batteryStats  capacity(relative)  ETV
vector 50  sim.host[8].batteryStats  capacity(relative)  ETV
vector 56  sim.host[9].batteryStats  capacity(relative)  ETV
vector 62  sim.host[10].batteryStats  capacity(relative)  ETV
vector 68  sim.host[11].batteryStats  capacity(relative)  ETV
vector 74  sim.host[12].batteryStats  capacity(relative)  ETV
vector 80  sim.host[13].batteryStats  capacity(relative)  ETV
vector 86  sim.host[14].batteryStats  capacity(relative)  ETV
vector 92  sim.host[15].batteryStats  capacity(relative)  ETV
vector 98  sim.host[16].batteryStats  capacity(relative)  ETV
vector 104  sim.host[17].batteryStats  capacity(relative)  ETV
vector 110  sim.host[18].batteryStats  capacity(relative)  ETV
vector 116  sim.host[19].batteryStats  capacity(relative)  ETV
2	0	0	0.666666666667
2	61	0.25	0.666666666667
2	81	0.5	0.666666666667
2	17731	0.75	0.666486272388
2	17771	1	0.6664
2	17791	1.25	0.6664
2	17811	1.5	0.6664
2	17831	1.75	0.6664
2	19619	2	0.666133333333
2	19639	2.25	0.666133333333
2	29337	2.5	0.666023053508
2	40228	2.75	0.665933713266
2	51655	3	0.665866666667
2	57542	3.25	0.665820148469
2	66363	3.5	0.665766653104
2	70168	3.75	0.665718759817
2	83976	4	0.6656
2	84348	4.25	0.665599192144
2	93160	4.5	0.665466679632
2	95061	4.75	0.665461536166
2	102075	5	0.665333333333
2	117045	5.25	0.665286937747
2	117065	5.5	0.665286937747
2	137200	5.75	0.665133390445
2	139471	6	0.665066666667
2	139491	6.25	0.665066666667
2	139511	6.5	0.665066666667
2	139531	6.75	0.665066666667
2	147839	7	0.6648
2	149782	7.25	0.664793210826
2	153352	7.5	0.664666736361
2	162385	7.75	0.664646091561
2	172212	8	0.664533333333
2	172232	8.25	0.664533333333
2	172252	8.5	0.664533333333
2	181870	8.75	0.664359957926
2	181910	9	0.664266666667
2	181930	9.25	0.664266666667
2	181950	9.5	0.664266666667
2	203232	9.75	0.664087699717
2	203272	10	0.664
2	203292	10.25	0.664
2	203312	10.5	0.664
2	203332	10.75	0.664
2	203372	11	0.663733333333
2	203392	11.25	0.663733333333
2	203412	11.5	0.663733333333
2	203432	11.75	0.663733333333
2	203472	12	0.663466666667
2	203492	12.25	0.663466666667
2	203512	12.5	0.663466666667
2	203532	12.75	0.663466666667
2	203572	13	0.6632
2	203592	13.25	0.6632
2	203612	13.5	0.6632
2	203632	13.75	0.6632
2	203672	14	0.662933333333
2	203692	14.25	0.662933333333
2	203712	14.5	0.662933333333
2	203732	14.75	0.662933333333
2	203772	15	0.662666666667
2	203792	15.25	0.662666666667
2	203812	15.5	0.662666666667
2	203832	15.75	0.662666666667
2	203872	16	0.6624
2	203892	16.25	0.6624
2	203912	16.5	0.6624
2	203932	16.75	0.6624
2	203972	17	0.662133333333
2	203992	17.25	0.662133333333
2	204012	17.5	0.662133333333
2	204032	17.75	0.662133333333
2	204072	18	0.661866666667
2	204092	18.25	0.661866666667
2	204112	18.5	0.661866666667
2	204132	18.75	0.661866666667
2	204172	19	0.6616
2	204192	19.25	0.6616
2	204212	19.5	0.6616
2	204232	19.75	0.6616
2	204272	20	0.661333333333
2	204292	20.25	0.661333333333
2	204312	20.5	0.661333333333
2	204332	20.75	0.661333333333
2	204372	21	0.661066666667
2	204392	21.25	0.661066666667
2	204412	21.5	0.661066666667
2	204432	21.75	0.661066666667
2	204472	22	0.6608
2	204492	22.25	0.6608
2	204512	22.5	0.6608
2	204532	22.75	0.6608
2	204572	23	0.660533333333
2	204592	23.25	0.660533333333
2	204612	23.5	0.660533333333
2	204632	23.75	0.660533333333
2	204672	24	0.660266666667
2	204692	24.25	0.660266666667
2	204712	24.5	0.660266666667
2	204732	24.75	0.660266666667
2	204772	25	0.66
2	204792	25.25	0.66
2	204812	25.5	0.66
2	204832	25.75	0.66
2	204872	26	0.659733333333
2	204892	26.25	0.659733333333
2	204912	26.5	0.659733333333
2	204932	26.75	0.659733333333
2	204972	27	0.659466666667
2	204992	27.25	0.659466666667
2	205012	27.5	0.659466666667
2	205032	27.75	0.659466666667
2	205072	28	0.6592
2	205092	28.25	0.6592
2	205112	28.5	0.6592
2	205132	28.75	0.6592
2	205172	29	0.658933333333
2	205192	29.25	0.658933333333
2	205212	29.5	0.658933333333
2	205232	29.75	0.658933333333
2	205272	30	0.658666666667
2	205292	30.25	0.658666666667
2	205312	30.5	0.658666666667
2	205332	30.75	0.658666666667
2	205372	31	0.6584
2	205392	31.25	0.6584
2	205412	31.5	0.6584
2	205432	31.75	0.6584
2	205472	32	0.658133333333
2	205492	32.25	0.658133333333
2	205512	32.5	0.658133333333
2	205532	32.75	0.658133333333
2	205572	33	0.657866666667
2	205592	33.25	0.657866666667
2	205612	33.5	0.657866666667
2	205632	33.75	0.657866666667
2	205672	34	0.6576
2	205692	34.25	0.6576
2	205712	34.5	0.6576
2	205732	34.75	0.6576
2	205772	35	0.657333333333
2	205792	35.25	0.657333333333
2	205812	35.5	0.657333333333
2	205832	35.75	0.657333333333
2	205872	36	0.657066666667
2	205892	36.25	0.657066666667
2	205912	36.5	0.657066666667
2	205932	36.75	0.657066666667
2	205972	37	0.6568
2	205992	37.25	0.6568
2	206012	37.5	0.6568
2	206032	37.75	0.6568
2	206072	38	0.656533333333
2	206092	38.25	0.656533333333
2	206112	38.5	0.656533333333
2	206132	38.75	0.656533333333
2	206172	39	0.656266666667
2	206192	39.25	0.656266666667
2	206212	39.5	0.656266666667
2	206232	39.75	0.656266666667
2	206272	40	0.656
2	206292	40.25	0.656
2	206312	40.5	0.656
2	206332	40.75	0.656
2	206372	41	0.655733333333
2	206392	41.25	0.655733333333
2	206412	41.5	0.655733333333
2	206432	41.75	0.655733333333
2	206472	42	0.655466666667
2	206492	42.25	0.655466666667
2	206512	42.5	0.655466666667
2	206532	42.75	0.655466666667
2	206572	43	0.6552
2	206592	43.25	0.6552
2	206612	43.5	0.6552
2	206632	43.75	0.6552
2	206672	44	0.654933333333
2	206692	44.25	0.654933333333
2	206712	44.5	0.654933333333
2	206732	44.75	0.654933333333
2	206772	45	0.654666666667
2	206792	45.25	0.654666666667
2	206812	45.5	0.654666666667
2	206832	45.75	0.654666666667
2	206872	46	0.6544
2	206892	46.25	0.6544
2	206912	46.5	0.6544
2	206932	46.75	0.6544
2	206972	47	0.654133333333
2	206992	47.25	0.654133333333
2	207012	47.5	0.654133333333
2	207032	47.75	0.654133333333
2	207072	48	0.653866666667
2	207092	48.25	0.653866666667
2	207112	48.5	0.653866666667
2	207132	48.75	0.653866666667
2	207172	49	0.6536
2	207192	49.25	0.6536
2	207212	49.5	0.6536
2	207232	49.75	0.6536
2	207272	50	0.653333333333
2	207292	50.25	0.653333333333
2	207312	50.5	0.653333333333
2	207332	50.75	0.653333333333
2	207372	51	0.653066666667
2	207392	51.25	0.653066666667
2	207412	51.5	0.653066666667
2	207432	51.75	0.653066666667
2	207472	52	0.6528
2	207492	52.25	0.6528
2	207512	52.5	0.6528
2	207532	52.75	0.6528
2	207572	53	0.652533333333
2	207592	53.25	0.652533333333
2	207612	53.5	0.652533333333
2	207632	53.75	0.652533333333
2	207672	54	0.652266666667
2	207692	54.25	0.652266666667
2	207712	54.5	0.652266666667
2	207732	54.75	0.652266666667
2	207772	55	0.652
2	207792	55.25	0.652
2	207812	55.5	0.652
2	207832	55.75	0.652
2	207872	56	0.651733333333
2	207892	56.25	0.651733333333
2	207912	56.5	0.651733333333
2	207932	56.75	0.651733333333
2	207972	57	0.651466666667
2	207992	57.25	0.651466666667
2	208012	57.5	0.651466666667
2	208032	57.75	0.651466666667
2	208072	58	0.6512
2	208092	58.25	0.6512
2	208112	58.5	0.6512
2	208132	58.75	0.6512
2	208172	59	0.650933333333
2	208192	59.25	0.650933333333
2	208212	59.5	0.650933333333
2	208232	59.75	0.650933333333
2	208272	60	0.650666666667
2	208292	60.25	0.650666666667
2	208312	60.5	0.650666666667
2	208332	60.75	0.650666666667
2	208372	61	0.6504
2	208392	61.25	0.6504
2	208412	61.5	0.6504
2	208432	61.75	0.6504
2	208472	62	0.650133333333
2	208492	62.25	0.650133333333
2	208512	62.5	0.650133333333
2	208532	62.75	0.650133333333
2	208572	63	0.649866666667
2	208592	63.25	0.649866666667
2	208612	63.5	0.649866666667
2	208632	63.75	0.649866666667
2	208672	64	0.6496
2	208692	64.25	0.6496
2	208712	64.5	0.6496
2	208732	64.75	0.6496
2	208772	65	0.649333333333
2	208792	65.25	0.649333333333
2	208812	65.5	0.649333333333
2	208832	65.75	0.649333333333
2	208872	66	0.649066666667
2	208892	66.25	0.649066666667
2	208912	66.5	0.649066666667
2	208932	66.75	0.649066666667
2	208972	67	0.6488
2	208992	67.25	0.6488
2	209012	67.5	0.6488
2	209032	67.75	0.6488
2	209072	68	0.648533333333
2	209092	68.25	0.648533333333
2	209112	68.5	0.648533333333
2	209132	68.75	0.648533333333
2	209172	69	0.648266666667
2	209192	69.25	0.648266666667
2	209212	69.5	0.648266666667
2	209232	69.75	0.648266666667
2	209272	70	0.648
2	209292	70.25	0.648
2	209312	70.5	0.648
2	209332	70.75	0.648
2	209372	71	0.647733333333
2	209392	71.25	0.647733333333
2	209412	71.5	0.647733333333
2	209432	71.75	0.647733333333
2	209472	72	0.647466666667
2	209492	72.25	0.647466666667
2	209512	72.5	0.647466666667
2	209532	72.75	0.647466666667
2	209572	73	0.6472
2	209592	73.25	0.6472
2	209612	73.5	0.6472
2	209632	73.75	0.6472
2	209672	74	0.646933333333
2	209692	74.25	0.646933333333
2	209712	74.5	0.646933333333
2	209732	74.75	0.646933333333
2	209772	75	0.646666666667
2	209792	75.25	0.646666666667
2	209812	75.5	0.646666666667
2	209832	75.75	0.646666666667
2	209872	76	0.6464
2	209892	76.25	0.6464
2	209912	76.5	0.6464
2	209932	76.75	0.6464
2	209972	77	0.646133333333
2	209992	77.25	0.646133333333
2	210012	77.5	0.646133333333
2	210032	77.75	0.646133333333
2	210072	78	0.645866666667
2	210092	78.25	0.645866666667
2	210112	78.5	0.645866666667
2	210132	78.75	0.645866666667
2	210172	79	0.6456
2	210192	79.25	0.6456
2	210212	79.5	0.6456
2	210232	79.75	0.6456
2	210272	80	0.645333333333
2	210292	80.25	0.645333333333
2	210312	80.5	0.645333333333
2	210332	80.75	0.645333333333
2	210372	81	0.645066666667
2	210392	81.25	0.645066666667
2	210412	81.5	0.645066666667
2	210432	81.75	0.645066666667
2	210472	82	0.6448
2	210492	82.25	0.6448
2	210512	82.5	0.6448
2	210532	82.75	0.6448
2	210572	83	0.644533333333
2	210592	83.25	0.644533333333
2	210612	83.5	0.644533333333
2	210632	83.75	0.644533333333
2	210672	84	0.644266666667
2	210692	84.25	0.644266666667
2	210712	84.5	0.644266666667
2	210732	84.75	0.644266666667
2	210772	85	0.644
2	210792	85.25	0.644
2	210812	85.5	0.644
2	210832	85.75	0.644
2	210872	86	0.643733333333
2	210892	86.25	0.643733333333
2	210912	86.5	0.643733333333
2	210932	86.75	0.643733333333
2	210972	87	0.643466666667
2	210992	87.25	0.643466666667
2	211012	87.5	0.643466666667
2	211032	87.75	0.643466666667
2	211072	88	0.6432
2	211092	88.25	0.6432
2	211112	88.5	0.6432
2	211132	88.75	0.6432
2	211172	89	0.642933333333
2	211192	89.25	0.642933333333
2	211212	89.5	0.642933333333
2	211232	89.75	0.642933333333
2	211272	90	0.642666666667
2	211292	90.25	0.642666666667
2	211312	90.5	0.642666666667
2	211332	90.75	0.642666666667
2	211372	91	0.6424
2	211392	91.25	0.6424
2	211412	91.5	0.6424
2	211432	91.75	0.6424
2	211472	92	0.642133333333
2	211492	92.25	0.642133333333
2	211512	92.5	0.642133333333
2	211532	92.75	0.642133333333
2	211572	93	0.641866666667
2	211592	93.25	0.641866666667
2	211612	93.5	0.641866666667
2	211632	93.75	0.641866666667
2	211672	94	0.6416
2	211692	94.25	0.6416
2	211712	94.5	0.6416
2	211732	94.75	0.6416
2	211772	95	0.641333333333
2	211792	95.25	0.641333333333
2	211812	95.5	0.641333333333
2	211832	95.75	0.641333333333
2	211872	96	0.641066666667
2	211892	96.25	0.641066666667
2	211912	96.5	0.641066666667
2	211932	96.75	0.641066666667
2	211972	97	0.6408
2	211992	97.25	0.6408
2	212012	97.5	0.6408
2	212032	97.75	0.6408
2	212072	98	0.640533333333
2	212092	98.25	0.640533333333
2	212112	98.5	0.640533333333
2	212132	98.75	0.640533333333
2	212172	99	0.640266666667
2	212192	99.25	0.640266666667
2	212212	99.5	0.640266666667
2	212232	99.75	0.640266666667
2	212272	100	0.64
2	212292	100.25	0.64
2	212312	100.5	0.64
2	212332	100.75	0.64
2	212372	101	0.639733333333
2	212392	101.25	0.639733333333
2	212412	101.5	0.639733333333
2	212432	101.75	0.639733333333
2	212472	102	0.639466666667
2	212492	102.25	0.639466666667
2	212512	102.5	0.639466666667
2	212532	102.75	0.639466666667
2	212572	103	0.6392
2	212592	103.25	0.6392
2	212612	103.5	0.6392
2	212632	103.75	0.6392
2	212672	104	0.638933333333
2	212692	104.25	0.638933333333
2	212712	104.5	0.638933333333
2	212732	104.75	0.638933333333
2	212772	105	0.638666666667
2	212792	105.25	0.638666666667
2	212812	105.5	0.638666666667
2	212832	105.75	0.638666666667
2	212872	106	0.6384
2	212892	106.25	0.6384
2	212912	106.5	0.6384
2	212932	106.75	0.6384
2	212972	107	0.638133333333
2	212992	107.25	0.638133333333
2	213012	107.5	0.638133333333
2	213032	107.75	0.638133333333
2	213072	108	0.637866666667
2	213092	108.25	0.637866666667
2	213112	108.5	0.637866666667
2	213132	108.75	0.637866666667
2	213172	109	0.6376
2	213192	109.25	0.6376
2	213212	109.5	0.6376
2	213232	109.75	0.6376
2	213272	110	0.637333333333
2	213292	110.25	0.637333333333
2	213312	110.5	0.637333333333
2	213332	110.75	0.637333333333
2	213372	111	0.637066666667
2	213392	111.25	0.637066666667
2	213412	111.5	0.637066666667
2	213432	111.75	0.637066666667
2	213472	112	0.6368
2	213492	112.25	0.6368
2	213512	112.5	0.6368
2	213532	112.75	0.6368
2	213572	113	0.636533333333
2	213592	113.25	0.636533333333
2	213612	113.5	0.636533333333
2	213632	113.75	0.636533333333
2	213672	114	0.636266666667
2	213692	114.25	0.636266666667
2	213712	114.5	0.636266666667
2	213732	114.75	0.636266666667
2	213772	115	0.636
2	213792	115.25	0.636
2	213812	115.5	0.636
2	213832	115.75	0.636
2	213872	116	0.635733333333
2	213892	116.25	0.635733333333
2	213912	116.5	0.635733333333
2	213932	116.75	0.635733333333
2	213972	117	0.635466666667
2	213992	117.25	0.635466666667
2	214012	117.5	0.635466666667
2	214032	117.75	0.635466666667
2	214072	118	0.6352
2	214092	118.25	0.6352
2	214112	118.5	0.6352
2	214132	118.75	0.6352
2	214172	119	0.634933333333
2	214192	119.25	0.634933333333
2	214212	119.5	0.634933333333
2	214232	119.75	0.634933333333
2	214272	120	0.634666666667
2	214292	120.25	0.634666666667
2	214312	120.5	0.634666666667
2	214332	120.75	0.634666666667
2	214372	121	0.6344
2	214392	121.25	0.6344
2	214412	121.5	0.6344
2	214432	121.75	0.6344
2	214472	122	0.634133333333
2	214492	122.25	0.634133333333
2	214512	122.5	0.634133333333
2	214532	122.75	0.634133333333
2	214572	123	0.633866666667
2	214592	123.25	0.633866666667
2	214612	123.5	0.633866666667
2	214632	123.75	0.633866666667
2	214672	124	0.6336
2	214692	124.25	0.6336
2	214712	124.5	0.6336
2	214732	124.75	0.6336
2	214772	125	0.633333333333
2	214792	125.25	0.633333333333
2	214812	125.5	0.633333333333
2	214832	125.75	0.633333333333
2	214872	126	0.633066666667
2	214892	126.25	0.633066666667
2	214912	126.5	0.633066666667
2	214932	126.75	0.633066666667
2	214972	127	0.6328
2	214992	127.25	0.6328
2	215012	127.5	0.6328
2	215032	127.75	0.6328
2	215072	128	0.632533333333
2	215092	128.25	0.632533333333
2	215112	128.5	0.632533333333
2	215132	128.75	0.632533333333
2	215172	129	0.632266666667
2	215192	129.25	0.632266666667
2	215212	129.5	0.632266666667
2	215232	129.75	0.632266666667
2	215272	130	0.632
2	215292	130.25	0.632
2	215312	130.5	0.632
2	215332	130.75	0.632
2	215372	131	0.631733333333
2	215392	131.25	0.631733333333
2	215412	131.5	0.631733333333
2	215432	131.75	0.631733333333
2	215472	132	0.631466666667
2	215492	132.25	0.631466666667
2	215512	132.5	0.631466666667
2	215532	132.75	0.631466666667
2	215572	133	0.6312
2	215592	133.25	0.6312
2	215612	133.5	0.6312
2	215632	133.75	0.6312
2	215672	134	0.630933333333
2	215692	134.25	0.630933333333
2	215712	134.5	0.630933333333
2	215732	134.75	0.630933333333
2	215772	135	0.630666666667
2	215792	135.25	0.630666666667
2	215812	135.5	0.630666666667
2	215832	135.75	0.630666666667
2	215872	136	0.6304
2	215892	136.25	0.6304
2	215912	136.5	0.6304
2	215932	136.75	0.6304
2	215972	137	0.630133333333
2	215992	137.25	0.630133333333
2	216012	137.5	0.630133333333
2	216032	137.75	0.630133333333
2	216072	138	0.629866666667
2	216092	138.25	0.629866666667
2	216112	138.5	0.629866666667
2	216132	138.75	0.629866666667
2	216172	139	0.6296
2	216192	139.25	0.6296
2	216212	139.5	0.6296
2	216232	139.75	0.6296
2	216272	140	0.629333333333
2	216292	140.25	0.629333333333
2	216312	140.5	0.629333333333
2	216332	140.75	0.629333333333
2	216372	141	0.629066666667
2	216392	141.25	0.629066666667
2	216412	141.5	0.629066666667
2	216432	141.75	0.629066666667
2	216472	142	0.6288
2	216492	142.25	0.6288
2	216512	142.5	0.6288
2	216532	142.75	0.6288
2	216572	143	0.628533333333
2	216592	143.25	0.628533333333
2	216612	143.5	0.628533333333
2	216632	143.75	0.628533333333
2	216672	144	0.628266666667
2	216692	144.25	0.628266666667
2	216712	144.5	0.628266666667
2	216732	144.75	0.628266666667
2	216772	145	0.628
2	216792	145.25	0.628
2	216812	145.5	0.628
2	216832	145.75	0.628
2	216872	146	0.627733333333
2	216892	146.25	0.627733333333
2	216912	146.5	0.627733333333
2	216932	146.75	0.627733333333
2	216972	147	0.627466666667
2	216992	147.25	0.627466666667
2	217012	147.5	0.627466666667
2	217032	147.75	0.627466666667
2	217072	148	0.6272
2	217092	148.25	0.6272
2	217112	148.5	0.6272
2	217132	148.75	0.6272
2	217172	149	0.626933333333
2	217192	149.25	0.626933333333
2	217212	149.5	0.626933333333
2	217232	149.75	0.626933333333
2	217272	150	0.626666666667
2	217292	150.25	0.626666666667
2	217312	150.5	0.626666666667
2	217332	150.75	0.626666666667
2	217372	151	0.6264
2	217392	151.25	0.6264
2	217412	151.5	0.6264
2	217432	151.75	0.6264
2	217472	152	0.626133333333
2	217492	152.25	0.626133333333
2	217512	152.5	0.626133333333
2	217532	152.75	0.626133333333
2	217572	153	0.625866666667
2	217592	153.25	0.625866666667
2	217612	153.5	0.625866666667
2	217632	153.75	0.625866666667
2	217672	154	0.6256
2	217692	154.25	0.6256
2	217712	154.5	0.6256
2	217732	154.75	0.6256
2	217772	155	0.625333333333
2	217792	155.25	0.625333333333
2	217812	155.5	0.625333333333
2	217832	155.75	0.625333333333
2	217872	156	0.625066666667
2	217892	156.25	0.625066666667
2	217912	156.5	0.625066666667
2	217932	156.75	0.625066666667
2	217972	157	0.6248
2	217992	157.25	0.6248
2	218012	157.5	0.6248
2	218032	157.75	0.6248
2	218072	158	0.624533333333
2	218092	158.25	0.624533333333
2	218112	158.5	0.624533333333
2	218132	158.75	0.624533333333
2	218172	159	0.624266666667
2	218192	159.25	0.624266666667
2	218212	159.5	0.624266666667
2	218232	159.75	0.624266666667
2	218272	160	0.624
2	218292	160.25	0.624
2	218312	160.5	0.624
2	218332	160.75	0.624
2	218372	161	0.623733333333
2	218392	161.25	0.623733333333
2	218412	161.5	0.623733333333
2	218432	161.75	0.623733333333
2	218472	162	0.623466666667
2	218492	162.25	0.623466666667
2	218512	162.5	0.623466666667
2	218532	162.75	0.623466666667
2	218572	163	0.6232
2	218592	163.25	0.6232
2	218612	163.5	0.6232
2	218632	163.75	0.6232
2	218672	164	0.622933333333
2	218692	164.25	0.622933333333
2	218712	164.5	0.622933333333
2	218732	164.75	0.622933333333
2	218772	165	0.622666666667
2	218792	165.25	0.622666666667
2	218812	165.5	0.622666666667
2	218832	165.75	0.622666666667
2	218872	166	0.6224
2	218892	166.25	0.6224
2	218912	166.5	0.6224
2	218932	166.75	0.6224
2	218972	167	0.622133333333
2	218992	167.25	0.622133333333
2	219012	167.5	0.622133333333
2	219032	167.75	0.622133333333
2	219072	168	0.621866666667
2	219092	168.25	0.621866666667
2	219112	168.5	0.621866666667
2	219132	168.75	0.621866666667
2	219172	169	0.6216
2	219192	169.25	0.6216
2	219212	169.5	0.6216
2	219232	169.75	0.6216
2	219272	170	0.621333333333
2	219292	170.25	0.621333333333
2	219312	170.5	0.621333333333
2	219332	170.75	0.621333333333
2	219372	171	0.621066666667
2	219392	171.25	0.621066666667
2	219412	171.5	0.621066666667
2	219432	171.75	0.621066666667
2	219472	172	0.6208
2	219492	172.25	0.6208
2	219512	172.5	0.6208
2	219532	172.75	0.6208
2	219572	173	0.620533333333
2	219592	173.25	0.620533333333
2	219612	173.5	0.620533333333
2	219632	173.75	0.620533333333
2	219672	174	0.620266666667
2	219692	174.25	0.620266666667
2	219712	174.5	0.620266666667
2	219732	174.75	0.620266666667
2	219772	175	0.62
2	219792	175.25	0.62
2	219812	175.5	0.62
2	219832	175.75	0.62
2	219872	176	0.619733333333
2	219892	176.25	0.619733333333
2	219912	176.5	0.619733333333
2	219932	176.75	0.619733333333
2	219972	177	0.619466666667
2	219992	177.25	0.619466666667
2	220012	177.5	0.619466666667
2	220032	177.75	0.619466666667
2	220072	178	0.6192
2	220092	178.25	0.6192
2	220112	178.5	0.6192
2	220132	178.75	0.6192
2	220172	179	0.618933333333
2	220192	179.25	0.618933333333
2	220212	179.5	0.618933333333
2	220232	179.75	0.618933333333
2	220272	180	0.618666666667
2	220292	180.25	0.618666666667
2	220312	180.5	0.618666666667
2	220332	180.75	0.618666666667
2	220372	181	0.6184
2	220392	181.25	0.6184
2	220412	181.5	0.6184
2	220432	181.75	0.6184
2	220472	182	0.618133333333
2	220492	182.25	0.618133333333
2	220512	182.5	0.618133333333
2	220532	182.75	0.618133333333
2	220572	183	0.617866666667
2	220592	183.25	0.617866666667
2	220612	183.5	0.617866666667
2	220632	183.75	0.617866666667
2	220672	184	0.6176
2	220692	184.25	0.6176
2	220712	184.5	0.6176
2	220732	184.75	0.6176
2	220772	185	0.617333333333
2	220792	185.25	0.617333333333
2	220812	185.5	0.617333333333
2	220832	185.75	0.617333333333
2	220872	186	0.617066666667
2	220892	186.25	0.617066666667
2	220912	186.5	0.617066666667
2	220932	186.75	0.617066666667
2	220972	187	0.6168
2	220992	187.25	0.6168
2	221012	187.5	0.6168
2	221032	187.75	0.6168
2	221072	188	0.616533333333
2	221092	188.25	0.616533333333
2	221112	188.5	0.616533333333
2	221132	188.75	0.616533333333
2	221172	189	0.616266666667
2	221192	189.25	0.616266666667
2	221212	189.5	0.616266666667
2	221232	189.75	0.616266666667
2	221272	190	0.616
2	221292	190.25	0.616
2	221312	190.5	0.616
2	221332	190.75	0.616
2	221372	191	0.615733333333
2	221392	191.25	0.615733333333
2	221412	191.5	0.615733333333
2	221432	191.75	0.615733333333
2	221472	192	0.615466666667
2	221492	192.25	0.615466666667
2	221512	192.5	0.615466666667
2	221532	192.75	0.615466666667
2	221572	193	0.6152
2	221592	193.25	0.6152
2	221612	193.5	0.6152
2	221632	193.75	0.6152
2	221672	194	0.614933333333
2	221692	194.25	0.614933333333
2	221712	194.5	0.614933333333
2	221732	194.75	0.614933333333
2	221772	195	0.614666666667
2	221792	195.25	0.614666666667
2	221812	195.5	0.614666666667
2	221832	195.75	0.614666666667
2	221872	196	0.6144
2	221892	196.25	0.6144
2	221912	196.5	0.6144
2	221932	196.75	0.6144
2	221972	197	0.614133333333
2	221992	197.25	0.614133333333
2	222012	197.5	0.614133333333
2	222032	197.75	0.614133333333
2	222072	198	0.613866666667
2	222092	198.25	0.613866666667
2	222112	198.5	0.613866666667
2	222132	198.75	0.613866666667
2	222172	199	0.6136
2	222192	199.25	0.6136
2	222212	199.5	0.6136
2	222232	199.75	0.6136
2	222272	200	0.613333333333
2	222292	200.25	0.613333333333
2	222312	200.5	0.613333333333
2	222332	200.75	0.613333333333
2	222372	201	0.613066666667
2	222392	201.25	0.613066666667
2	222412	201.5	0.613066666667
2	222432	201.75	0.613066666667
2	222472	202	0.6128
2	222492	202.25	0.6128
2	222512	202.5	0.6128
2	222532	202.75	0.6128
2	222572	203	0.612533333333
2	222592	203.25	0.612533333333
2	222612	203.5	0.612533333333
2	222632	203.75	0.612533333333
2	222672	204	0.612266666667
2	222692	204.25	0.612266666667
2	222712	204.5	0.612266666667
2	222732	204.75	0.612266666667
2	222772	205	0.612
2	222792	205.25	0.612
2	222812	205.5	0.612
2	222832	205.75	0.612
2	222872	206	0.611733333333
2	222892	206.25	0.611733333333
2	222912	206.5	0.611733333333
2	222932	206.75	0.611733333333
2	222972	207	0.611466666667
2	222992	207.25	0.611466666667
2	223012	207.5	0.611466666667
2	223032	207.75	0.611466666667
2	223072	208	0.6112
2	223092	208.25	0.6112
2	223112	208.5	0.6112
2	223132	208.75	0.6112
2	223172	209	0.610933333333
2	223192	209.25	0.610933333333
2	223212	209.5	0.610933333333
2	223232	209.75	0.610933333333
2	223272	210	0.610666666667
2	223292	210.25	0.610666666667
2	223312	210.5	0.610666666667
2	223332	210.75	0.610666666667
2	223372	211	0.6104
2	223392	211.25	0.6104
2	223412	211.5	0.6104
2	223432	211.75	0.6104
2	223472	212	0.610133333333
2	223492	212.25	0.610133333333
2	223512	212.5	0.610133333333
2	223532	212.75	0.610133333333
2	223572	213	0.609866666667
2	223592	213.25	0.609866666667
2	223612	213.5	0.609866666667
2	223632	213.75	0.609866666667
2	223672	214	0.6096
2	223692	214.25	0.6096
2	223712	214.5	0.6096
2	223732	214.75	0.6096
2	223772	215	0.609333333333
2	223792	215.25	0.609333333333
2	223812	215.5	0.609333333333
2	223832	215.75	0.609333333333
2	223872	216	0.609066666667
2	223892	216.25	0.609066666667
2	223912	216.5	0.609066666667
2	223932	216.75	0.609066666667
2	223972	217	0.6088
2	223992	217.25	0.6088
2	224012	217.5	0.6088
2	224032	217.75	0.6088
2	224072	218	0.608533333333
2	224092	218.25	0.608533333333
2	224112	218.5	0.608533333333
2	224132	218.75	0.608533333333
2	224172	219	0.608266666667
2	224192	219.25	0.608266666667
2	224212	219.5	0.608266666667
2	224232	219.75	0.608266666667
2	224272	220	0.608
2	224292	220.25	0.608
2	224312	220.5	0.608
2	224332	220.75	0.608
2	224372	221	0.607733333333
2	224392	221.25	0.607733333333
2	224412	221.5	0.607733333333
2	224432	221.75	0.607733333333
2	224472	222	0.607466666667
2	224492	222.25	0.607466666667
2	224512	222.5	0.607466666667
2	224532	222.75	0.607466666667
2	224572	223	0.6072
2	224592	223.25	0.6072
2	224612	223.5	0.6072
2	224632	223.75	0.6072
2	224672	224	0.606933333333
2	224692	224.25	0.606933333333
2	224712	224.5	0.606933333333
2	224732	224.75	0.606933333333
2	224772	225	0.606666666667
2	224792	225.25	0.606666666667
2	224812	225.5	0.606666666667
2	224832	225.75	0.606666666667
2	224872	226	0.6064
2	224892	226.25	0.6064
2	224912	226.5	0.6064
2	224932	226.75	0.6064
2	224972	227	0.606133333333
2	224992	227.25	0.606133333333
2	225012	227.5	0.606133333333
2	225032	227.75	0.606133333333
2	225072	228	0.605866666667
2	225092	228.25	0.605866666667
2	225112	228.5	0.605866666667
2	225132	228.75	0.605866666667
2	225172	229	0.6056
2	225192	229.25	0.6056
2	225212	229.5	0.6056
2	225232	229.75	0.6056
2	225272	230	0.605333333333
2	225292	230.25	0.605333333333
2	225312	230.5	0.605333333333
2	225332	230.75	0.605333333333
2	225372	231	0.605066666667
2	225392	231.25	0.605066666667
2	225412	231.5	0.605066666667
2	225432	231.75	0.605066666667
2	225472	232	0.6048
2	225492	232.25	0.6048
2	225512	232.5	0.6048
2	225532	232.75	0.6048
2	225572	233	0.604533333333
2	225592	233.25	0.604533333333
2	225612	233.5	0.604533333333
2	225632	233.75	0.604533333333
2	225672	234	0.604266666667
2	225692	234.25	0.604266666667
2	225712	234.5	0.604266666667
2	225732	234.75	0.604266666667
2	225772	235	0.604
2	225792	235.25	0.604
2	225812	235.5	0.604
2	225832	235.75	0.604
2	225872	236	0.603733333333
2	225892	236.25	0.603733333333
2	225912	236.5	0.603733333333
2	225932	236.75	0.603733333333
2	225972	237	0.603466666667
2	225992	237.25	0.603466666667
2	226012	237.5	0.603466666667
2	226032	237.75	0.603466666667
2	226072	238	0.6032
2	226092	238.25	0.6032
2	226112	238.5	0.6032
2	226132	238.75	0.6032
2	226172	239	0.602933333333
2	226192	239.25	0.602933333333
2	226212	239.5	0.602933333333
2	226232	239.75	0.602933333333
2	226272	240	0.602666666667
2	226292	240.25	0.602666666667
2	226312	240.5	0.602666666667
2	226332	240.75	0.602666666667
2	226372	241	0.6024
2	226392	241.25	0.6024
2	226412	241.5	0.6024
2	226432	241.75	0.6024
2	226472	242	0.602133333333
2	226492	242.25	0.602133333333
2	226512	242.5	0.602133333333
2	226532	242.75	0.602133333333
2	226572	243	0.601866666667
2	226592	243.25	0.601866666667
2	226612	243.5	0.601866666667
2	226632	243.75	0.601866666667
2	226672	244	0.6016
2	226692	244.25	0.6016
2	226712	244.5	0.6016
2	226732	244.75	0.6016
2	226772	245	0.601333333333
2	226792	245.25	0.601333333333
2	226812	245.5	0.601333333333
2	226832	245.75	0.601333333333
2	226872	246	0.601066666667
2	226892	246.25	0.601066666667
2	226912	246.5	0.601066666667
2	226932	246.75	0.601066666667
2	226972	247	0.6008
2	226992	247.25	0.6008
2	227012	247.5	0.6008
2	227032	247.75	0.6008
2	227072	248	0.600533333333
2	227092	248.25	0.600533333333
2	227112	248.5	0.600533333333
2	227132	248.75	0.600533333333
2	227172	249	0.600266666667
2	227192	249.25	0.600266666667
2	227212	249.5	0.600266666667
2	227232	249.75	0.600266666667
2	227272	250	0.6
2	227292	250.25	0.6
2	227312	250.5	0.6
2	227332	250.75	0.6
2	227372	251	0.599733333333
2	227392	251.25	0.599733333333
2	227412	251.5	0.599733333333
2	227432	251.75	0.599733333333
2	227472	252	0.599466666667
2	227492	252.25	0.599466666667
2	227512	252.5	0.599466666667
2	227532	252.75	0.599466666667
2	227572	253	0.5992
2	227592	253.25	0.5992
2	227612	253.5	0.5992
2	227632	253.75	0.5992
2	227672	254	0.598933333333
2	227692	254.25	0.598933333333
2	227712	254.5	0.598933333333
2	227732	254.75	0.598933333333
2	227772	255	0.598666666667
2	227792	255.25	0.598666666667
2	227812	255.5	0.598666666667
2	227832	255.75	0.598666666667
2	227872	256	0.5984
2	227892	256.25	0.5984
2	227912	256.5	0.5984
2	227932	256.75	0.5984
2	227972	257	0.598133333333
2	227992	257.25	0.598133333333
2	228012	257.5	0.598133333333
2	228032	257.75	0.598133333333
2	228072	258	0.597866666667
2	228092	258.25	0.597866666667
2	228112	258.5	0.597866666667
2	228132	258.75	0.597866666667
2	228172	259	0.5976
2	228192	259.25	0.5976
2	228212	259.5	0.5976
2	228232	259.75	0.5976
2	228272	260	0.597333333333
2	228292	260.25	0.597333333333
2	228312	260.5	0.597333333333
2	228332	260.75	0.597333333333
2	228372	261	0.597066666667
2	228392	261.25	0.597066666667
2	228412	261.5	0.597066666667
2	228432	261.75	0.597066666667
2	228472	262	0.5968
2	228492	262.25	0.5968
2	228512	262.5	0.5968
2	228532	262.75	0.5968
2	228572	263	0.596533333333
2	228592	263.25	0.596533333333
2	228612	263.5	0.596533333333
2	228632	263.75	0.596533333333
2	228672	264	0.596266666667
2	228692	264.25	0.596266666667