file 369403 1253793440                                          
version 2
run Six-0-20090924-13:56:42-18884
attr configname Six
attr datetime 20090924-13:56:42
attr experiment Six
attr inifile omnetpp.ini
attr iterationvars ""
attr iterationvars2 $repetition=0
attr measurement ""
attr network sim
attr processid 18884
attr repetition 0
attr replication #0
attr resultdir results
attr runnumber 0
attr seedset 0
vector 2  sim.host[0].batteryStats  capacity(relative)  ETV
2	530 135363 0 29938 0 10 3629 0.553347177778 1 2830.8887116831 2266.4341738254
vector 7  sim.host[1].batteryStats  capacity(relative)  ETV
7	135893 135457 0 29938 0 10 3632 0.557075033333 1 2855.7080675448 2302.7141714056
vector 12  sim.host[2].batteryStats  capacity(relative)  ETV
12	271350 98053 0 22103 0 1.68717692616 2547 0 0.3 384.42854435269 76.675410068238
