version 2
run Four-0-20090922-16:16:35-16862
attr configname Four
attr datetime 20090922-16:16:35
attr experiment Four
attr inifile omnetpp.ini
attr iterationvars ""
attr iterationvars2 $repetition=0
attr measurement ""
attr network sim
attr processid 16862
attr repetition 0
attr replication #0
attr resultdir results
attr runnumber 0
attr seedset 0

vector 2  sim.host[0].batteryStats  capacity(relative)  ETV
vector 7  sim.host[1].batteryStats  capacity(relative)  ETV
vector 12  sim.host[2].batteryStats  capacity(relative)  ETV
2	0	0	1
2	10	0.1	1
2	13	0.2	1
2	16	0.3	1
2	19	0.4	1
2	22	0.5	1
2	25	0.6	1
2	28	0.7	1
2	31	0.8	1
2	34	0.9	1
2	40	1	0.998611111111
2	3130	1.1	0.95718257184
2	6334	1.2	0.912153627396
2	9476	1.3	0.867093094061
2	12721	1.4	0.822113746839
2	16200	1.5	0.776930302395
2	19436	1.6	0.733152976491
2	22599	1.7	0.69068594038
2	25818	1.8	0.64684380069
2	28988	1.9	0.60370466776
2	29849	2	0.592315666667
2	29852	2.1	0.592315666667
2	29855	2.2	0.592315666667
2	29858	2.3	0.592315666667
2	29861	2.4	0.592315666667
2	29864	2.5	0.592315666667
2	29867	2.6	0.592315666667
2	29870	2.7	0.592315666667
2	29873	2.8	0.592315666667
2	29876	2.9	0.592315666667
2	29882	3	0.590926777778
2	29885	3.1	0.590926777778
2	29888	3.2	0.590926777778
2	29891	3.3	0.590926777778
2	29894	3.4	0.590926777778
2	29897	3.5	0.590926777778
2	29900	3.6	0.590926777778
2	29903	3.7	0.590926777778
2	29906	3.8	0.590926777778
2	29909	3.9	0.590926777778
2	29915	4	0.589537888889
2	29918	4.1	0.589537888889
2	29921	4.2	0.589537888889
2	29924	4.3	0.589537888889
2	29927	4.4	0.589537888889
2	29930	4.5	0.589537888889
2	29933	4.6	0.589537888889
2	29936	4.7	0.589537888889
2	29939	4.8	0.589537888889
2	29942	4.9	0.589537888889
2	29948	5	0.588149
2	29951	5.1	0.588149
2	29954	5.2	0.588149
2	29957	5.3	0.588149
2	29960	5.4	0.588149
2	29963	5.5	0.588149
2	29966	5.6	0.588149
2	29969	5.7	0.588149
2	29972	5.8	0.588149
2	29975	5.9	0.588149
2	29981	6	0.586760111111
2	29984	6.1	0.586760111111
2	29987	6.2	0.586760111111
2	29990	6.3	0.586760111111
2	29993	6.4	0.586760111111
2	29996	6.5	0.586760111111
2	29999	6.6	0.586760111111
2	30002	6.7	0.586760111111
2	30005	6.8	0.586760111111
2	30008	6.9	0.586760111111
2	30014	7	0.585371222222
2	30017	7.1	0.585371222222
2	30020	7.2	0.585371222222
2	30023	7.3	0.585371222222
2	30026	7.4	0.585371222222
2	30029	7.5	0.585371222222
2	33172	7.6	0.544479521895
2	36428	7.7	0.500679202467
2	39632	7.8	0.457422224689
2	42773	7.9	0.414068169817
2	44381	8	0.392948744444
2	44384	8.1	0.392948744444
2	44387	8.2	0.392948744444
2	44390	8.3	0.392948744444
2	44393	8.4	0.392948744444
2	44396	8.5	0.392948744444
2	44399	8.6	0.392948744444
2	44402	8.7	0.392948744444
2	44405	8.8	0.392948744444
2	44408	8.9	0.392948744444
2	44414	9	0.391559855556
2	44417	9.1	0.391559855556
2	44420	9.2	0.391559855556
2	44423	9.3	0.391559855556
2	44426	9.4	0.391559855556
2	44429	9.5	0.391559855556
2	44432	9.6	0.391559855556
2	44435	9.7	0.391559855556
2	44438	9.8	0.391559855556
2	44441	9.9	0.391559855556
7	0	0	1
7	11	0.1	1
7	14	0.2	1
7	17	0.3	1
7	20	0.4	1
7	23	0.5	1
7	26	0.6	1
7	29	0.7	1
7	32	0.8	1
7	35	0.9	1
7	41	1	0.998611111111
7	3131	1.1	0.959514660729
7	6335	1.2	0.916165716285
7	9477	1.3	0.873426605172
7	12722	1.4	0.83041525795
7	16201	1.5	0.785558035728
7	19437	1.6	0.741524120936
7	22600	1.7	0.698474195936
7	25819	1.8	0.655443022912
7	28989	1.9	0.611980334427
7	29850	2	0.601004666667
7	29853	2.1	0.601004666667
7	29856	2.2	0.601004666667
7	29859	2.3	0.601004666667
7	29862	2.4	0.601004666667
7	29865	2.5	0.601004666667
7	29868	2.6	0.601004666667
7	29871	2.7	0.601004666667
7	29874	2.8	0.601004666667
7	29877	2.9	0.601004666667
7	29883	3	0.599615777778
7	29886	3.1	0.599615777778
7	29889	3.2	0.599615777778
7	29892	3.3	0.599615777778
7	29895	3.4	0.599615777778
7	29898	3.5	0.599615777778
7	29901	3.6	0.599615777778
7	29904	3.7	0.599615777778
7	29907	3.8	0.599615777778
7	29910	3.9	0.599615777778
7	29916	4	0.598226888889
7	29919	4.1	0.598226888889
7	29922	4.2	0.598226888889
7	29925	4.3	0.598226888889
7	29928	4.4	0.598226888889
7	29931	4.5	0.598226888889
7	29934	4.6	0.598226888889
7	29937	4.7	0.598226888889
7	29940	4.8	0.598226888889
7	29943	4.9	0.598226888889
7	29949	5	0.596838
7	29952	5.1	0.596838
7	29955	5.2	0.596838
7	29958	5.3	0.596838
7	29961	5.4	0.596838
7	29964	5.5	0.596838
7	29967	5.6	0.596838
7	29970	5.7	0.596838
7	29973	5.8	0.596838
7	29976	5.9	0.596838
7	29982	6	0.595449111111
7	29985	6.1	0.595449111111
7	29988	6.2	0.595449111111
7	29991	6.3	0.595449111111
7	29994	6.4	0.595449111111
7	29997	6.5	0.595449111111
7	30000	6.6	0.595449111111
7	30003	6.7	0.595449111111
7	30006	6.8	0.595449111111
7	30009	6.9	0.595449111111
7	30015	7	0.594060222222
7	30018	7.1	0.594060222222
7	30021	7.2	0.594060222222
7	30024	7.3	0.594060222222
7	30027	7.4	0.594060222222
7	30030	7.5	0.594060222222
7	33173	7.6	0.551118444117
7	36429	7.7	0.505413824689
7	39633	7.8	0.459886324689
7	42774	7.9	0.414697603151
7	44382	8	0.392843655556
7	44385	8.1	0.392843655556
7	44388	8.2	0.392843655556
7	44391	8.3	0.392843655556
7	44394	8.4	0.392843655556
7	44397	8.5	0.392843655556
7	44400	8.6	0.392843655556
7	44403	8.7	0.392843655556
7	44406	8.8	0.392843655556
7	44409	8.9	0.392843655556
7	44415	9	0.391454766667
7	44418	9.1	0.391454766667
7	44421	9.2	0.391454766667
7	44424	9.3	0.391454766667
7	44427	9.4	0.391454766667
7	44430	9.5	0.391454766667
7	44433	9.6	0.391454766667
7	44436	9.7	0.391454766667
7	44439	9.8	0.391454766667
7	44442	9.9	0.391454766667
12	0	0	1
12	12	0.1	1
12	15	0.2	1
12	18	0.3	1
12	21	0.4	1
12	24	0.5	1
12	27	0.6	1
12	30	0.7	1
12	33	0.8	1
12	36	0.9	1
12	42	1	0.998611111111
12	3132	1.1	0.958807460729
12	6336	1.2	0.915428294063
12	9478	1.3	0.87291828295
12	12723	1.4	0.829801691283
12	16202	1.5	0.785232469061
12	19438	1.6	0.739432032047
12	22601	1.7	0.694017429269
12	25820	1.8	0.648938845134
12	28990	1.9	0.603918823316
12	29851	2	0.592016044444
12	29854	2.1	0.592016044444
12	29857	2.2	0.592016044444
12	29860	2.3	0.592016044444
12	29863	2.4	0.592016044444
12	29866	2.5	0.592016044444
12	29869	2.6	0.592016044444
12	29872	2.7	0.592016044444
12	29875	2.8	0.592016044444
12	29878	2.9	0.592016044444
12	29884	3	0.590627155556
12	29887	3.1	0.590627155556
12	29890	3.2	0.590627155556
12	29893	3.3	0.590627155556
12	29896	3.4	0.590627155556
12	29899	3.5	0.590627155556
12	29902	3.6	0.590627155556
12	29905	3.7	0.590627155556
12	29908	3.8	0.590627155556
12	29911	3.9	0.590627155556
12	29917	4	0.589238266667
12	29920	4.1	0.589238266667
12	29923	4.2	0.589238266667
12	29926	4.3	0.589238266667
12	29929	4.4	0.589238266667
12	29932	4.5	0.589238266667
12	29935	4.6	0.589238266667
12	29938	4.7	0.589238266667
12	29941	4.8	0.589238266667
12	29944	4.9	0.589238266667
12	29950	5	0.587849377778
12	29953	5.1	0.587849377778
12	29956	5.2	0.587849377778
12	29959	5.3	0.587849377778
12	29962	5.4	0.587849377778
12	29965	5.5	0.587849377778
12	29968	5.6	0.587849377778
12	29971	5.7	0.587849377778
12	29974	5.8	0.587849377778
12	29977	5.9	0.587849377778
12	29983	6	0.586460488889
12	29986	6.1	0.586460488889
12	29989	6.2	0.586460488889
12	29992	6.3	0.586460488889
12	29995	6.4	0.586460488889
12	29998	6.5	0.586460488889
12	30001	6.6	0.586460488889
12	30004	6.7	0.586460488889
12	30007	6.8	0.586460488889
12	30010	6.9	0.586460488889
12	30016	7	0.5850716
12	30019	7.1	0.5850716
12	30022	7.2	0.5850716
12	30025	7.3	0.5850716
12	30028	7.4	0.5850716
12	30031	7.5	0.5850716
12	33174	7.6	0.543935155228
12	36430	7.7	0.5010020358
12	39634	7.8	0.457213502467
12	42775	7.9	0.414817314262
12	44383	8	0.393512111111
12	44386	8.1	0.393512111111
12	44389	8.2	0.393512111111
12	44392	8.3	0.393512111111
12	44395	8.4	0.393512111111
12	44398	8.5	0.393512111111
12	44401	8.6	0.393512111111
12	44404	8.7	0.393512111111
12	44407	8.8	0.393512111111
12	44410	8.9	0.393512111111
12	44416	9	0.392123222222
12	44419	9.1	0.392123222222
12	44422	9.2	0.392123222222
12	44425	9.3	0.392123222222
12	44428	9.4	0.392123222222
12	44431	9.5	0.392123222222
12	44434	9.6	0.392123222222
12	44437	9.7	0.392123222222
12	44440	9.8	0.392123222222
12	44443	9.9	0.392123222222
