version 2
run Six-0-20090922-16:16:43-16887
attr configname Six
attr datetime 20090922-16:16:43
attr experiment Six
attr inifile omnetpp.ini
attr iterationvars ""
attr iterationvars2 $repetition=0
attr measurement ""
attr network sim
attr processid 16887
attr repetition 0
attr replication #0
attr resultdir results
attr runnumber 0
attr seedset 0

vector 2  sim.host[0].batteryStats  capacity(relative)  ETV
vector 7  sim.host[1].batteryStats  capacity(relative)  ETV
vector 12  sim.host[2].batteryStats  capacity(relative)  ETV
2	0	0	1
2	0	0	1
2	10	1	0.998611111111
2	218	1.006556273925	0.998602005175
2	221	1.007412273925	0.998102671842
2	236	1.008116273925	0.998101694064
2	239	1.008972273925	0.997602360731
2	254	1.009636273925	0.997601438508
2	259	1.010492273925	0.997102105175
2	276	1.010542273925	0.997102035731
2	280	1.010814273925	0.996973591286
2	290	1.010824273925	0.996973577397
2	293	1.011072273925	0.996828910731
2	305	1.011082273925	0.996828896842
2	308	1.011938273925	0.99642467462
2	320	1.011948273925	0.996424660731
2	324	1.012196273925	0.996279994064
2	336	1.012546273925	0.996279507953
2	340	1.013402273925	0.99578017462
2	355	1.013852273925	0.99577954962
2	360	1.014708273925	0.995280216286
2	377	1.014758273925	0.995280146842
2	381	1.015030273925	0.995151702397
2	391	1.015040273925	0.995151688508
2	396	1.015288273925	0.995007021842
2	408	1.015298273925	0.995007007953
2	415	1.016154273925	0.994602785731
2	427	1.016164273925	0.994602771842
2	431	1.016412273925	0.994458105175
2	447	1.016602273925	0.994457841286
2	452	1.016874273925	0.994329396842
2	462	1.016884273925	0.994329382953
2	465	1.017132273925	0.994184716286
2	477	1.017142273925	0.994184702397
2	482	1.017998273925	0.993780480175
2	494	1.018008273925	0.993780466286
2	500	1.018256273925	0.99363579962
2	514	1.018346273925	0.99363567462
2	519	1.018618273925	0.993507230175
2	529	1.018628273925	0.993507216286
2	532	1.018876273925	0.99336254962
2	544	1.018886273925	0.993362535731
2	549	1.019742273925	0.992958313508
2	561	1.019752273925	0.99295829962
2	565	1.020000273925	0.992813632953
2	579	1.020150273925	0.99281342462
2	584	1.020422273925	0.992684980175
2	594	1.020432273925	0.992684966286
2	597	1.020680273925	0.99254029962
2	609	1.020690273925	0.992540285731
2	612	1.021546273925	0.992136063508
2	624	1.021556273925	0.99213604962
2	628	1.021804273925	0.991991382953
2	642	1.021914273925	0.991991230175
2	647	1.022186273925	0.991862785731
2	657	1.022196273925	0.991862771842
2	660	1.022444273925	0.991718105175
2	672	1.022454273925	0.991718091286
2	677	1.023310273925	0.991313869064
2	689	1.023320273925	0.991313855175
2	693	1.023568273925	0.991169188508
2	708	1.024018273925	0.991168563508
2	729	1.024874273925	0.990669230175
2	748	1.025024273925	0.990669021842
2	753	1.025296273925	0.990540577397
2	763	1.025306273925	0.990540563508
2	766	1.025554273925	0.990395896842
2	778	1.025564273925	0.990395882953
2	781	1.026420273925	0.989991660731
2	793	1.026430273925	0.989991646842
2	797	1.026678273925	0.989846980175
2	811	1.026868273925	0.989846716286
2	816	1.027140273925	0.989718271842
2	826	1.027150273925	0.989718257953
2	829	1.027398273925	0.989573591286
2	841	1.027408273925	0.989573577397
2	844	1.028264273925	0.989169355175
2	856	1.028274273925	0.989169341286
2	860	1.028522273925	0.98902467462
2	874	1.028772273925	0.989024327397
2	879	1.029044273925	0.988895882953
2	889	1.029054273925	0.988895869064
2	892	1.029302273925	0.988751202397
2	904	1.029312273925	0.988751188508
2	907	1.030168273925	0.988346966286
2	919	1.030178273925	0.988346952397
2	923	1.030426273925	0.988202285731
2	938	1.031016273925	0.988201466286
2	942	1.031872273925	0.987702132953
2	958	1.032462273925	0.987701313508
2	964	1.033318273925	0.987201980175
2	982	1.033368273925	0.987201910731
2	987	1.033640273925	0.987073466286
2	997	1.033650273925	0.987073452397
2	1000	1.033898273925	0.986928785731
2	1012	1.033908273925	0.986928771842
2	1015	1.034764273925	0.98652454962
2	1027	1.034774273925	0.986524535731
2	1031	1.035022273925	0.986379869064
2	1046	1.035332273925	0.986379438508
2	1050	1.036188273925	0.985880105175
2	1068	1.036298273925	0.985879952397
2	1072	1.037154273925	0.985380619064
2	1088	1.037504273925	0.985380132953
2	1092	1.038360273925	0.98488079962
2	1111	1.038890273925	0.984880063508
2	1115	1.039162273925	0.984751619064
2	1125	1.039172273925	0.984751605175
2	1128	1.039420273925	0.984606938508
2	1140	1.039430273925	0.98460692462
2	1145	1.040286273925	0.984202702397
2	1157	1.040296273925	0.984202688508
2	1163	1.040544273925	0.984058021842
2	1177	1.040594273925	0.984057952397
2	1182	1.040866273925	0.983929507953
2	1192	1.040876273925	0.983929494064
2	1199	1.041124273925	0.983784827397
2	1211	1.041134273925	0.983784813508
2	1216	1.041990273925	0.983380591286
2	1228	1.042000273925	0.983380577397
2	1232	1.042248273925	0.983235910731
2	1246	1.042318273925	0.983235813508
2	1251	1.042590273925	0.983107369064
2	1261	1.042600273925	0.983107355175
2	1264	1.042848273925	0.982962688508
2	1276	1.042858273925	0.98296267462
2	1279	1.043714273925	0.982558452397
2	1291	1.043724273925	0.982558438508
2	1297	1.043972273925	0.982413771842
2	1310	1.044202273925	0.982413452397
2	1315	1.045058273925	0.981914119064
2	1333	1.045288273925	0.98191379962
2	1338	1.045560273925	0.981785355175
2	1348	1.045570273925	0.981785341286
2	1353	1.045818273925	0.98164067462
2	1365	1.045828273925	0.981640660731
2	1370	1.046684273925	0.981236438508
2	1382	1.046694273925	0.98123642462
2	1386	1.046942273925	0.981091757953
2	1400	1.047012273925	0.981091660731
2	1405	1.047284273925	0.980963216286
2	1415	1.047294273925	0.980963202397
2	1420	1.047542273925	0.980818535731
2	1432	1.047552273925	0.980818521842
2	1435	1.048408273925	0.98041429962
2	1447	1.048418273925	0.980414285731
2	1451	1.048666273925	0.980269619064
2	1464	1.048796273925	0.980269438508
2	1469	1.049652273925	0.979770105175
2	1489	1.050042273925	0.979769563508
2	1494	1.050314273925	0.979641119064
2	1504	1.050324273925	0.979641105175
2	1507	1.050572273925	0.979496438508
2	1519	1.050582273925	0.97949642462
2	1522	1.051438273925	0.979092202397
2	1534	1.051448273925	0.979092188508
2	1538	1.051696273925	0.978947521842
2	1552	1.051846273925	0.978947313508
2	1557	1.052118273925	0.978818869064
2	1567	1.052128273925	0.978818855175
2	1570	1.052376273925	0.978674188508
2	1582	1.052386273925	0.97867417462
2	1587	1.053242273925	0.978269952397
2	1599	1.053252273925	0.978269938508
2	1603	1.053500273925	0.978125271842
2	1618	1.053810273925	0.978124841286
2	1633	1.054666273925	0.977625507953
2	1647	1.054810274925	0.977625307951
2	1652	1.055082274925	0.977496863507
2	1662	1.055092274925	0.977496849618
2	1665	1.055340274925	0.977352182951
2	1677	1.055350274925	0.977352169063
2	1680	1.056206274925	0.97694794684
2	1692	1.056216274925	0.976947932951
2	1696	1.056464274925	0.976803266285
2	1710	1.056574274925	0.976803113507
2	1715	1.056846274925	0.976674669063
2	1725	1.056856274925	0.976674655174
2	1728	1.057104274925	0.976529988507
2	1740	1.057114274925	0.976529974618
2	1747	1.057970274925	0.976125752396
2	1759	1.057980274925	0.976125738507
2	1763	1.058228274925	0.97598107184
2	1777	1.058338274925	0.975980919063
2	1782	1.058610274925	0.975852474618
2	1792	1.058620274925	0.975852460729
2	1795	1.058868274925	0.975707794063
2	1807	1.058878274925	0.975707780174
2	1810	1.059734274925	0.975303557951
2	1822	1.059744274925	0.975303544063
2	1826	1.059992274925	0.975158877396
2	1840	1.060122274925	0.97515869684
2	1845	1.060394274925	0.975030252396
2	1855	1.060404274925	0.975030238507
2	1858	1.060652274925	0.97488557184
2	1870	1.060662274925	0.974885557951
2	1873	1.061518274925	0.974481335729
2	1885	1.061528274925	0.97448132184
2	1889	1.061776274925	0.974336655174
2	1902	1.062026274925	0.974336307951
2	1907	1.062882274925	0.973836974618
2	1925	1.063032274925	0.973836766285
2	1930	1.063304274925	0.97370832184
2	1940	1.063314274925	0.973708307951
2	1943	1.063562274925	0.973563641285
2	1955	1.063572274925	0.973563627396
2	1958	1.064428274925	0.973159405174
2	1970	1.064438274925	0.973159391285
2	1974	1.064686274925	0.973014724618
2	1988	1.064816274925	0.973014544063
2	1993	1.065088274925	0.972886099618
2	2003	1.065098274925	0.972886085729
2	2006	1.065346274925	0.972741419063
2	2018	1.065356274925	0.972741405174
2	2021	1.066212274925	0.972337182951
2	2033	1.066222274925	0.972337169063
2	2037	1.066470274925	0.972192502396
2	2051	1.066760274925	0.972192099618
2	2056	1.067032274925	0.972063655174
2	2066	1.067042274925	0.972063641285
2	2069	1.067290274925	0.971918974618
2	2081	1.067300274925	0.971918960729
2	2084	1.068156274925	0.971514738507
2	2096	1.068166274925	0.971514724618
2	2102	1.068414274925	0.971370057951
2	2116	1.068684274925	0.971369682951
2	2121	1.068956274925	0.971241238507
2	2131	1.068966274925	0.971241224618
2	2134	1.069214274925	0.971096557951
2	2146	1.069224274925	0.971096544063
2	2149	1.070080274925	0.97069232184
2	2161	1.070090274925	0.970692307951
2	2165	1.070338274925	0.970547641285
2	2179	1.070508274925	0.970547405174
2	2184	1.070780274925	0.970418960729
2	2194	1.070790274925	0.97041894684
2	2197	1.071038274925	0.970274280174
2	2209	1.071048274925	0.970274266285
2	2214	1.071904274925	0.969870044063
2	2226	1.071914274925	0.969870030174
2	2230	1.072162274925	0.969725363507
2	2244	1.072272274925	0.969725210729
2	2249	1.072544274925	0.969596766285
2	2259	1.072554274925	0.969596752396
2	2262	1.072802274925	0.969452085729
2	2274	1.072812274925	0.96945207184
2	2277	1.073668274925	0.969047849618
2	2289	1.073678274925	0.969047835729
2	2293	1.073926274925	0.968903169063
2	2306	1.074136274925	0.968902877396
2	2311	1.074992274925	0.968403544063
2	2328	1.075222274925	0.968403224618
2	2332	1.075494274925	0.968274780174
2	2342	1.075504274925	0.968274766285
2	2345	1.075752274925	0.968130099618
2	2357	1.075762274925	0.968130085729
2	2360	1.076618274925	0.967725863507
2	2372	1.076628274925	0.967725849618
2	2376	1.076876274925	0.967581182951
2	2391	1.077446274925	0.967580391285
2	2395	1.078302274925	0.967081057951
2	2410	1.078552274925	0.967080710729
2	2413	1.079408274925	0.966581377396
2	2428	1.079658274925	0.966581030174
2	2433	1.080514274925	0.96608169684
2	2450	1.080564274925	0.966081627396
2	2454	1.080836274925	0.965953182951
2	2464	1.080846274925	0.965953169063
2	2467	1.081094274925	0.965808502396
2	2479	1.081104274925	0.965808488507
2	2484	1.081960274925	0.965404266285
2	2496	1.081970274925	0.965404252396
2	2500	1.082218274925	0.965259585729
2	2514	1.082308274925	0.965259460729
2	2519	1.082580274925	0.965131016285
2	2529	1.082590274925	0.965131002396
2	2534	1.082838274925	0.964986335729
2	2546	1.082848274925	0.96498632184
2	2551	1.083704274925	0.964582099618
2	2563	1.083714274925	0.964582085729
2	2569	1.083962274925	0.964437419063
2	2583	1.084072274925	0.964437266285
2	2588	1.084344274925	0.96430882184
2	2598	1.084354274925	0.964308807951
2	2603	1.084602274925	0.964164141285
2	2615	1.084612274925	0.964164127396
2	2618	1.085468274925	0.963759905174
2	2630	1.085478274925	0.963759891285
2	2634	1.085726274925	0.963615224618
2	2648	1.086036274925	0.963614794063
2	2653	1.086308274925	0.963486349618
2	2663	1.086318274925	0.963486335729
2	2668	1.086566274925	0.963341669063
2	2680	1.086576274925	0.963341655174
2	2683	1.087432274925	0.962937432951
2	2695	1.087442274925	0.962937419063
2	2699	1.087690274925	0.962792752396
2	2712	1.087780274925	0.962792627396
2	2717	1.088636274925	0.962293294063
2	2735	1.088826274925	0.962293030174
2	2742	1.089098274925	0.962164585729
2	2752	1.089108274925	0.96216457184
2	2755	1.089356274925	0.962019905174
2	2767	1.089366274925	0.962019891285
2	2772	1.090222274925	0.961615669063
2	2784	1.090232274925	0.961615655174
2	2788	1.090480274925	0.961470988507
2	2802	1.090610274925	0.961470807951
2	2807	1.090882274925	0.961342363507
2	2817	1.090892274925	0.961342349618
2	2820	1.091140274925	0.961197682951
2	2832	1.091150274925	0.961197669063
2	2835	1.092006274925	0.96079344684
2	2847	1.092016274925	0.960793432951
2	2851	1.092264274925	0.960648766285
2	2864	1.092494274925	0.96064844684
2	2869	1.093350274925	0.960149113507
2	2886	1.093660274925	0.960148682951
2	2891	1.094516274925	0.959649349618
2	2909	1.094626274925	0.95964919684
2	2914	1.094898274925	0.959520752396
2	2924	1.094908274925	0.959520738507
2	2927	1.095156274925	0.95937607184
2	2941	1.095166274925	0.959376057951
2	2944	1.096022274925	0.958971835729
2	2956	1.096032274925	0.95897182184
2	2960	1.096280274925	0.958827155174
2	2974	1.096370274925	0.958827030174
2	2979	1.096642274925	0.958698585729
2	2989	1.096652274925	0.95869857184
2	2992	1.096900274925	0.958553905174
2	3004	1.096910274925	0.958553891285
2	3009	1.097766274925	0.958149669063
2	3021	1.097776274925	0.958149655174
2	3025	1.098024274925	0.958004988507
2	3039	1.098294274925	0.958004613507
2	3044	1.098566274925	0.957876169063
2	3054	1.098576274925	0.957876155174
2	3057	1.098824274925	0.957731488507
2	3069	1.098834274925	0.957731474618
2	3072	1.099690274925	0.957327252396
2	3084	1.099700274925	0.957327238507
2	3090	1.099948274925	0.95718257184
2	3104	1.100378274925	0.957181974618
2	3109	1.100650274925	0.957053530174
2	3119	1.100660274925	0.957053516285
2	3122	1.100908274925	0.956908849618
2	3134	1.100918274925	0.956908835729
2	3139	1.101774274925	0.956504613507
2	3151	1.101784274925	0.956504599618
2	3155	1.102032274925	0.956359932951
2	3169	1.102102274925	0.956359835729
2	3176	1.102374274925	0.956231391285
2	3186	1.102384274925	0.956231377396
2	3189	1.102632274925	0.956086710729
2	3201	1.102642274925	0.95608669684
2	3204	1.103498274925	0.955682474618
2	3216	1.103508274925	0.955682460729
2	3220	1.103756274925	0.955537794063
2	3233	1.103986274925	0.955537474618
2	3238	1.104842274925	0.955038141285
2	3255	1.104892274925	0.95503807184
2	3260	1.105748274925	0.954538738507
2	3278	1.105818274925	0.954538641285
2	3285	1.106090274925	0.95441019684
2	3295	1.106100274925	0.954410182951
2	3298	1.106348274925	0.954265516285
2	3310	1.106358274925	0.954265502396
2	3315	1.107214274925	0.953861280174
2	3327	1.107224274925	0.953861266285
2	3331	1.107472274925	0.953716599618
2	3345	1.107782274925	0.953716169063
2	3350	1.108054274925	0.953587724618
2	3360	1.108064274925	0.953587710729
2	3363	1.108312274925	0.953443044063
2	3375	1.108322274925	0.953443030174
2	3378	1.109178274925	0.953038807951
2	3390	1.109188274925	0.953038794063
2	3394	1.109436274925	0.952894127396
2	3408	1.109506274925	0.952894030174
2	3413	1.109778274925	0.952765585729
2	3423	1.109788274925	0.95276557184
2	3426	1.110036274925	0.952620905174
2	3438	1.110046274925	0.952620891285
2	3441	1.110902274925	0.952216669063
2	3453	1.110912274925	0.952216655174
2	3457	1.111160274925	0.952071988507
2	3472	1.111510274925	0.952071502396
2	3476	1.112366274925	0.951572169063
2	3493	1.112436274925	0.95157207184
2	3497	1.112708274925	0.951443627396
2	3507	1.112718274925	0.951443613507
2	3510	1.112966274925	0.95129894684
2	3522	1.112976274925	0.951298932951
2	3527	1.113832274925	0.950894710729
2	3539	1.113842274925	0.95089469684
2	3545	1.114090274925	0.950750030174
2	3559	1.114140274925	0.950749960729
2	3564	1.114412274925	0.950621516285
2	3574	1.114422274925	0.950621502396
2	3577	1.114670274925	0.950476835729
2	3589	1.114680274925	0.95047682184
2	3594	1.115536274925	0.950072599618
2	3606	1.115546274925	0.950072585729
2	3610	1.115794274925	0.949927919063
2	3624	1.116024274925	0.949927599618
2	3629	1.116296274925	0.949799155174
2	3639	1.116306274925	0.949799141285
2	3642	1.116554274925	0.949654474618
2	3654	1.116564274925	0.949654460729
2	3657	1.117420274925	0.949250238507
2	3669	1.117430274925	0.949250224618
2	3673	1.117678274925	0.949105557951
2	3686	1.118048274925	0.949105044063
2	3691	1.118904274925	0.948605710729
2	3708	1.118994274925	0.948605585729
2	3715	1.119850274925	0.948106252396
2	3733	1.119980274925	0.94810607184
2	3740	1.120252274925	0.947977627396
2	3750	1.120262274925	0.947977613507
2	3755	1.120510274925	0.94783294684
2	3767	1.120520274925	0.947832932951
2	3770	1.121376274925	0.947428710729
2	3782	1.121386274925	0.94742869684
2	3788	1.121634274925	0.947284030174
2	3802	1.121704274925	0.947283932951
2	3807	1.121976274925	0.947155488507
2	3817	1.121986274925	0.947155474618
2	3820	1.122234274925	0.947010807951
2	3832	1.122244274925	0.947010794063
2	3835	1.123100274925	0.94660657184
2	3847	1.123110274925	0.946606557951
2	3851	1.123358274925	0.946461891285
2	3865	1.123668274925	0.946461460729
2	3870	1.123940274925	0.946333016285
2	3880	1.123950274925	0.946333002396
2	3883	1.124198274925	0.946188335729
2	3895	1.124208274925	0.94618832184
2	3898	1.125064274925	0.945784099618
2	3910	1.125074274925	0.945784085729
2	3914	1.125322274925	0.945639419063
2	3928	1.125452274925	0.945639238507
2	3933	1.125724274925	0.945510794063
2	3943	1.125734274925	0.945510780174
2	3946	1.125982274925	0.945366113507
2	3958	1.125992274925	0.945366099618
2	3961	1.126848274925	0.944961877396
2	3973	1.126858274925	0.944961863507
2	3977	1.127106274925	0.94481719684
2	3993	1.127436274925	0.944816738507
2	3998	1.127708274925	0.944688294063
2	4008	1.127718274925	0.944688280174
2	4011	1.127966274925	0.944543613507
2	4023	1.127976274925	0.944543599618
2	4026	1.128832274925	0.944139377396
2	4038	1.128842274925	0.944139363507
2	4042	1.129090274925	0.94399469684
2	4056	1.129460274925	0.943994182951
2	4061	1.129732274925	0.943865738507
2	4071	1.129742274925	0.943865724618
2	4074	1.129990274925	0.943721057951
2	4086	1.130000274925	0.943721044063
2	4089	1.130856274925	0.94331682184
2	4101	1.130866274925	0.943316807951
2	4105	1.131114274925	0.943172141285
2	4118	1.131304274925	0.943171877396
2	4123	1.132160274925	0.942672544063
2	4142	1.132310274925	0.942672335729
2	4146	1.132582274925	0.942543891285
2	4156	1.132592274925	0.942543877396
2	4159	1.132840274925	0.942399210729
2	4171	1.132850274925	0.94239919684
2	4174	1.133706274925	0.941994974618
2	4186	1.133716274925	0.941994960729
2	4192	1.133964274925	0.941850294063
2	4205	1.134134274925	0.941850057951
2	4210	1.134990274925	0.941350724618
2	4227	1.135040274925	0.941350655174
2	4232	1.135896274925	0.94085132184
2	4249	1.136086274925	0.940851057951
2	4254	1.136942274925	0.940351724618
2	4272	1.137152274925	0.940351432951
2	4277	1.137424274925	0.940222988507
2	4287	1.137434274925	0.940222974618
2	4290	1.137682274925	0.940078307951
2	4302	1.137692274925	0.940078294063
2	4307	1.138548274925	0.93967407184
2	4319	1.138558274925	0.939674057951
2	4323	1.138806274925	0.939529391285
2	4337	1.138976274925	0.939529155174
2	4342	1.139248274925	0.939400710729
2	4352	1.139258274925	0.93940069684
2	4355	1.139506274925	0.939256030174
2	4367	1.139516274925	0.939256016285
2	4370	1.140372274925	0.938851794063
2	4382	1.140382274925	0.938851780174
2	4386	1.140630274925	0.938707113507
2	4402	1.140800274925	0.938706877396
2	4409	1.141072274925	0.938578432951
2	4419	1.141082274925	0.938578419063
2	4422	1.141330274925	0.938433752396
2	4434	1.141340274925	0.938433738507
2	4441	1.142196274925	0.938029516285
2	4453	1.142206274925	0.938029502396
2	4457	1.142454274925	0.937884835729
2	4470	1.142544274925	0.937884710729
2	4475	1.143400274925	0.937385377396
2	4494	1.143610274925	0.937385085729
2	4501	1.144466274925	0.936885752396
2	4519	1.144776274925	0.93688532184
2	4524	1.145048274925	0.936756877396
2	4534	1.145058274925	0.936756863507
2	4537	1.145306274925	0.93661219684
2	4549	1.145316274925	0.936612182952
2	4556	1.146172274925	0.936207960729
2	4568	1.146182274925	0.93620794684
2	4572	1.146430274925	0.936063280174
2	4586	1.146640274925	0.936062988507
2	4591	1.146912274925	0.935934544063
2	4601	1.146922274925	0.935934530174
2	4604	1.147170274925	0.935789863507
2	4616	1.147180274925	0.935789849618
2	4619	1.148036274925	0.935385627396
2	4631	1.148046274925	0.935385613507
2	4635	1.148294274925	0.93524094684
2	4649	1.148624274925	0.935240488507
2	4654	1.148896274925	0.935112044063
2	4664	1.148906274925	0.935112030174
2	4667	1.149154274925	0.934967363507
2	4679	1.149164274925	0.934967349618
2	4684	1.150020274925	0.934563127396
2	4696	1.150030274925	0.934563113507
2	4700	1.150278274925	0.93441844684
2	4714	1.150468274925	0.934418182952
2	4719	1.150740274925	0.934289738507
2	4729	1.150750274925	0.934289724618
2	4732	1.150998274925	0.934145057952
2	4744	1.151008274925	0.934145044063
2	4747	1.151864274925	0.93374082184
2	4759	1.151874274925	0.933740807952
2	4763	1.152122274925	0.933596141285
2	4777	1.152192274925	0.933596044063
2	4782	1.152464274925	0.933467599618
2	4792	1.152474274925	0.933467585729
2	4795	1.152722274925	0.933322919063
2	4807	1.152732274925	0.933322905174
2	4810	1.153588274925	0.932918682952
2	4822	1.153598274925	0.932918669063
2	4826	1.153846274925	0.932774002396
2	4839	1.154036274925	0.932773738507
2	4844	1.154892274925	0.932274405174
2	4861	1.155222274925	0.93227394684
2	4866	1.156078274925	0.931774613507
2	4884	1.156168274925	0.931774488507
2	4889	1.156440274925	0.931646044063
2	4899	1.156450274925	0.931646030174
2	4902	1.156698274925	0.931501363507
2	4914	1.156708274925	0.931501349618
2	4919	1.157564274925	0.931097127396
2	4931	1.157574274925	0.931097113507
2	4935	1.157822274925	0.93095244684
2	4949	1.157932274925	0.930952294063
2	4956	1.158204274925	0.930823849618
2	4966	1.158214274925	0.930823835729
2	4969	1.158462274925	0.930679169063
2	4981	1.158472274925	0.930679155174
2	4986	1.159328274925	0.930274932952
2	4998	1.159338274925	0.930274919063
2	5002	1.159586274925	0.930130252396
2	5016	1.159696274925	0.930130099618
2	5021	1.159968274925	0.930001655174
2	5031	1.159978274925	0.930001641285
2	5034	1.160226274925	0.929856974618
2	5046	1.160236274925	0.929856960729
2	5049	1.161092274925	0.929452738507
2	5061	1.161102274925	0.929452724618
2	5065	1.161350274925	0.929308057952
2	5079	1.161640274925	0.929307655174
2	5086	1.161912274925	0.929179210729
2	5096	1.161922274925	0.92917919684
2	5099	1.162170274925	0.929034530174
2	5111	1.162180274925	0.929034516285
2	5114	1.163036274925	0.928630294063
2	5126	1.163046274925	0.928630280174
2	5130	1.163294274925	0.928485613507
2	5144	1.163424274925	0.928485432952
2	5149	1.163696274925	0.928356988507
2	5159	1.163706274925	0.928356974618
2	5162	1.163954274925	0.928212307952
2	5174	1.163964274925	0.928212294063
2	5177	1.164820274925	0.92780807184
2	5189	1.164830274925	0.927808057952
2	5193	1.165078274925	0.927663391285
2	5207	1.165428274925	0.927662905174
2	5212	1.165700274925	0.927534460729
2	5222	1.165710274925	0.92753444684
2	5225	1.165958274925	0.927389780174
2	5237	1.165968274925	0.927389766285
2	5240	1.166824274925	0.926985544063
2	5252	1.166834274925	0.926985530174
2	5256	1.167082274925	0.926840863507
2	5269	1.167412274925	0.926840405174
2	5274	1.168268274925	0.92634107184
2	5292	1.168338274925	0.926340974618
2	5297	1.168610274925	0.926212530174
2	5307	1.168620274925	0.926212516285
2	5310	1.168868274925	0.926067849618
2	5322	1.168878274925	0.926067835729
2	5325	1.169734274925	0.925663613507
2	5337	1.169744274925	0.925663599618
2	5341	1.169992274925	0.925518932952
2	5354	1.170142274925	0.925518724618
2	5359	1.170998274925	0.925019391285
2	5376	1.171088274925	0.925019266285
2	5380	1.171360274925	0.92489082184
2	5390	1.171370274925	0.924890807952
2	5393	1.171618274925	0.924746141285
2	5405	1.171628274925	0.924746127396
2	5410	1.172484274925	0.924341905174
2	5422	1.172494274925	0.924341891285
2	5426	1.172742274925	0.924197224618
2	5440	1.172972274925	0.924196905174
2	5445	1.173244274925	0.924068460729
2	5455	1.173254274925	0.92406844684
2	5458	1.173502274925	0.923923780174
2	5470	1.173512274925	0.923923766285
2	5475	1.174368274925	0.923519544063
2	5487	1.174378274925	0.923519530174
2	5491	1.174626274925	0.923374863507
2	5507	1.174876274925	0.923374516285
2	5511	1.175148274925	0.92324607184
2	5521	1.175158274925	0.923246057952
2	5524	1.175406274925	0.923101391285
2	5536	1.175416274925	0.923101377396
2	5541	1.176272274925	0.922697155174
2	5553	1.176282274925	0.922697141285
2	5557	1.176530274925	0.922552474618
2	5571	1.176580274925	0.922552405174
2	5576	1.176852274925	0.922423960729
2	5586	1.176862274925	0.92242394684
2	5589	1.177110274925	0.922279280174
2	5601	1.177120274925	0.922279266285
2	5604	1.177976274925	0.921875044063
2	5616	1.177986274925	0.921875030174
2	5620	1.178234274925	0.921730363507
2	5633	1.178324274925	0.921730238507
2	5638	1.179180274925	0.921230905174
2	5653	1.179830274925	0.921230002396
2	5658	1.180686274925	0.920730669063
2	5677	1.181176274925	0.920729988507
2	5682	1.182032274925	0.920230655174
2	5700	1.182102274925	0.920230557952
2	5705	1.182374274925	0.920102113507
2	5715	1.182384274925	0.920102099618
2	5724	1.182632274925	0.919957432952
2	5736	1.182642274925	0.919957419063
2	5739	1.183498274925	0.91955319684
2	5751	1.183508274925	0.919553182952
2	5755	1.183756274925	0.919408516285
2	5768	1.183886274925	0.919408335729
2	5773	1.184742274925	0.918909002396
2	5795	1.184832274925	0.918908877396
2	5802	1.185104274925	0.918780432952
2	5815	1.185114274925	0.918780419063
2	5818	1.185362274925	0.918635752396
2	5830	1.185372274925	0.918635738507
2	5833	1.186228274925	0.918231516285
2	5845	1.186238274925	0.918231502396
2	5849	1.186486274925	0.918086835729
2	5863	1.186536274925	0.918086766285
2	5868	1.186808274925	0.91795832184
2	5878	1.186818274925	0.917958307952
2	5881	1.187066274925	0.917813641285
2	5893	1.187076274925	0.917813627396
2	5900	1.187932274925	0.917409405174
2	5912	1.187942274925	0.917409391285
2	5916	1.188190274925	0.917264724618
2	5929	1.188420274925	0.917264405174
2	5934	1.189276274925	0.91676507184
2	5952	1.189646274925	0.916764557952
2	5957	1.189918274925	0.916636113507
2	5967	1.189928274925	0.916636099618
2	5970	1.190176274925	0.916491432952
2	5982	1.190186274925	0.916491419063
2	5985	1.191042274925	0.91608719684
2	5997	1.191052274925	0.916087182952
2	6001	1.191300274925	0.915942516285
2	6015	1.191450274925	0.915942307952
2	6020	1.191722274925	0.915813863507
2	6030	1.191732274925	0.915813849618
2	6033	1.191980274925	0.915669182952
2	6045	1.191990274925	0.915669169063
2	6050	1.192846274925	0.91526494684
2	6062	1.192856274925	0.915264932952
2	6066	1.193104274925	0.915120266285
2	6080	1.193254274925	0.915120057952
2	6085	1.193526274925	0.914991613507
2	6095	1.193536274925	0.914991599618
2	6098	1.193784274925	0.914846932952
2	6110	1.193794274925	0.914846919063
2	6115	1.194650274925	0.91444269684
2	6127	1.194660274925	0.914442682952
2	6131	1.194908274925	0.914298016285
2	6144	1.194978274925	0.914297919063
2	6151	1.195834274925	0.913798585729
2	6169	1.195924274925	0.913798460729
2	6174	1.196196274925	0.913670016285
2	6184	1.196206274925	0.913670002396
2	6187	1.196454274925	0.913525335729
2	6199	1.196464274925	0.91352532184
2	6204	1.197320274925	0.913121099618
2	6216	1.197330274925	0.913121085729
2	6220	1.197578274925	0.912976419063
2	6234	1.197648274925	0.91297632184
2	6239	1.197920274925	0.912847877396
2	6249	1.197930274925	0.912847863507
2	6252	1.198178274925	0.91270319684
2	6264	1.198188274925	0.912703182952
2	6267	1.199044274925	0.912298960729
2	6279	1.199054274925	0.91229894684
2	6283	1.199302274925	0.912154280174
2	6297	1.199772274925	0.912153627396
2	6302	1.200044274925	0.912025182952
2	6312	1.200054274925	0.912025169063
2	6315	1.200302274925	0.911880502396
2	6327	1.200312274925	0.911880488507
2	6332	1.201168274925	0.911476266285
2	6344	1.201178274925	0.911476252396
2	6348	1.201426274925	0.911331585729
2	6364	1.201576274925	0.911331377396
2	6369	1.201848274925	0.911202932952
2	6379	1.201858274925	0.911202919063
2	6382	1.202106274925	0.911058252396
2	6394	1.202116274925	0.911058238507
2	6397	1.202972274925	0.910654016285
2	6409	1.202982274925	0.910654002396
2	6413	1.203230274925	0.910509335729
2	6427	1.203380274925	0.910509127396
2	6432	1.203652274925	0.910380682952
2	6442	1.203662274925	0.910380669063
2	6445	1.203910274925	0.910236002396
2	6457	1.203920274925	0.910235988507
2	6460	1.204776274925	0.909831766285
2	6472	1.204786274925	0.909831752396
2	6476	1.205034274925	0.909687085729
2	6490	1.205144274925	0.909686932952
2	6495	1.205416274925	0.909558488507
2	6505	1.205426274925	0.909558474618
2	6508	1.205674274925	0.909413807952
2	6520	1.205684274925	0.909413794063
2	6523	1.206540274925	0.90900957184
2	6535	1.206550274925	0.909009557952
2	6539	1.206798274925	0.908864891285
2	6554	1.206888274925	0.908864766285
2	6558	1.207744274925	0.908365432952
2	6575	1.207914274925	0.90836519684
2	6579	1.208186274925	0.908236752396
2	6589	1.208196274925	0.908236738507
2	6592	1.208444274925	0.90809207184
2	6604	1.208454274925	0.908092057952
2	6607	1.209310274925	0.907687835729
2	6619	1.209320274925	0.90768782184
2	6623	1.209568274925	0.907543155174
2	6637	1.210218274925	0.907542252396
2	6640	1.211074274925	0.907042919063
2	6655	1.211564274925	0.907042238507
2	6660	1.212420274925	0.906542905174
2	6677	1.212470274925	0.906542835729
2	6681	1.212742274925	0.906414391285
2	6691	1.212752274925	0.906414377396
2	6694	1.213000274925	0.906269710729
2	6706	1.213010274925	0.90626969684
2	6713	1.213866274925	0.905865474618
2	6725	1.213876274925	0.905865460729
2	6729	1.214124274925	0.905720794063
2	6743	1.214174274925	0.905720724618
2	6748	1.214446274925	0.905592280174
2	6758	1.214456274925	0.905592266285
2	6761	1.214704274925	0.905447599618
2	6773	1.214714274925	0.905447585729
2	6780	1.215570274925	0.905043363507
2	6792	1.215580274925	0.905043349618
2	6796	1.215828274925	0.904898682952
2	6810	1.216098274925	0.904898307952
2	6815	1.216370274925	0.904769863507
2	6825	1.216380274925	0.904769849618
2	6828	1.216628274925	0.904625182952
2	6840	1.216638274925	0.904625169063
2	6843	1.217494274925	0.90422094684
2	6855	1.217504274925	0.904220932952
2	6859	1.217752274925	0.904076266285
2	6873	1.218142274925	0.904075724618
2	6878	1.218414274925	0.903947280174
2	6888	1.218424274925	0.903947266285
2	6891	1.218672274925	0.903802599618
2	6903	1.218682274925	0.903802585729
2	6906	1.219538274925	0.903398363507
2	6918	1.219548274925	0.903398349618
2	6922	1.219796274925	0.903253682952
2	6935	1.219846274925	0.903253613507
2	6942	1.220702274925	0.902754280174
2	6964	1.220892274925	0.902754016285
2	6971	1.221164274925	0.90262557184