version 2
run Four-0-20100408-14:36:22-4494
attr configname Four
attr datetime 20100408-14:36:22
attr experiment Four
attr inifile omnetpp.ini
attr iterationvars ""
attr iterationvars2 $repetition=0
attr measurement ""
attr network sim
attr processid 4494
attr repetition 0
attr replication #0
attr resultdir results
attr runnumber 0
attr seedset 0

vector 2  sim.host[0].batteryStats  capacity(relative)  ETV
vector 8  sim.host[1].batteryStats  capacity(relative)  ETV
vector 14  sim.host[2].batteryStats  capacity(relative)  ETV
2	0	0	1
2	10	0.1	1
2	13	0.2	1
2	16	0.3	1
2	19	0.4	1
2	22	0.5	1
2	25	0.6	1
2	28	0.7	1
2	31	0.8	1
2	34	0.9	1
2	40	1	0.998611111111
2	43	1.1	0.998611111111
2	46	1.2	0.998611111111
2	49	1.3	0.998611111111
2	52	1.4	0.998611111111
2	55	1.5	0.998611111111
2	58	1.6	0.998611111111
2	61	1.7	0.998611111111
2	64	1.8	0.998611111111
2	67	1.9	0.998611111111
2	73	2	0.997222222222
2	76	2.1	0.997222222222
2	79	2.2	0.997222222222
2	82	2.3	0.997222222222
2	85	2.4	0.997222222222
2	88	2.5	0.997222222222
2	91	2.6	0.997222222222
2	94	2.7	0.997222222222
2	97	2.8	0.997222222222
2	100	2.9	0.997222222222
2	1504	3	0.979444376905
2	4573	3.1	0.936955808759
2	7776	3.2	0.892919767093
2	11033	3.3	0.848755905981
2	14263	3.4	0.805166965431
2	15408	3.5	0.789464869623
2	15411	3.6	0.789464869623
2	15414	3.7	0.789464869623
2	15417	3.8	0.789464869623
2	15420	3.9	0.789464869623
2	15426	4	0.788681111111
2	15429	4.1	0.788681111111
2	15432	4.2	0.788681111111
2	15435	4.3	0.788681111111
2	15438	4.4	0.788681111111
2	15441	4.5	0.788681111111
2	15444	4.6	0.788681111111
2	15447	4.7	0.788681111111
2	15450	4.8	0.788681111111
2	15453	4.9	0.788681111111
2	15459	5	0.787292222222
2	15462	5.1	0.787292222222
2	15465	5.2	0.787292222222
2	15468	5.3	0.787292222222
2	15471	5.4	0.787292222222
2	15474	5.5	0.787292222222
2	15477	5.6	0.787292222222
2	15480	5.7	0.787292222222
2	15483	5.8	0.787292222222
2	15486	5.9	0.787292222222
2	15492	6	0.785903333333
2	15495	6.1	0.785903333333
2	15498	6.2	0.785903333333
2	15501	6.3	0.785903333333
2	15504	6.4	0.785903333333
2	15507	6.5	0.785903333333
2	15510	6.6	0.785903333333
2	15513	6.7	0.785903333333
2	15516	6.8	0.785903333333
2	18676	6.9	0.741869216651
2	21900	7	0.696513455993
2	25121	7.1	0.651344616009
2	28299	7.2	0.60581689299
2	30819	7.3	0.570362182974
2	30822	7.4	0.570362182974
2	30825	7.5	0.570362182974
2	30828	7.6	0.570362182974
2	30831	7.7	0.570362182974
2	31736	7.8	0.559956370852
2	34878	7.9	0.51688511395
2	38039	8	0.473308926667
2	41240	8.1	0.42990833105
2	44499	8.2	0.385265814597
2	46136	8.3	0.363252356264
2	46139	8.4	0.363252356264
2	46142	8.5	0.363252356264
2	46145	8.6	0.363252356264
2	46148	8.7	0.363252356264
2	46151	8.8	0.363252356264
2	46154	8.9	0.363252356264
2	46160	9	0.36221
2	46163	9.1	0.36221
2	46166	9.2	0.36221
2	46169	9.3	0.36221
2	46172	9.4	0.36221
2	46175	9.5	0.36221
2	46178	9.6	0.36221
2	46181	9.7	0.36221
2	46184	9.8	0.36221
2	46187	9.9	0.36221
8	0	0	1
8	11	0.1	1
8	14	0.2	1
8	17	0.3	1
8	20	0.4	1
8	23	0.5	1
8	26	0.6	1
8	29	0.7	1
8	32	0.8	1
8	35	0.9	1
8	41	1	0.998611111111
8	44	1.1	0.998611111111
8	47	1.2	0.998611111111
8	50	1.3	0.998611111111
8	53	1.4	0.998611111111
8	56	1.5	0.998611111111
8	59	1.6	0.998611111111
8	62	1.7	0.998611111111
8	65	1.8	0.998611111111
8	68	1.9	0.998611111111
8	74	2	0.997222222222
8	77	2.1	0.997222222222
8	80	2.2	0.997222222222
8	83	2.3	0.997222222222
8	86	2.4	0.997222222222
8	89	2.5	0.997222222222
8	92	2.6	0.997222222222
8	95	2.7	0.997222222222
8	98	2.8	0.997222222222
8	101	2.9	0.997222222222
8	1505	3	0.978668396165
8	4574	3.1	0.934170030981
8	7777	3.2	0.888514433759
8	11034	3.3	0.842971017093
8	14264	3.4	0.797491409876
8	15409	3.5	0.781464869623
8	15412	3.6	0.781464869623
8	15415	3.7	0.781464869623
8	15418	3.8	0.781464869623
8	15421	3.9	0.781464869623
8	15427	4	0.780681111111
8	15430	4.1	0.780681111111
8	15433	4.2	0.780681111111
8	15436	4.3	0.780681111111
8	15439	4.4	0.780681111111
8	15442	4.5	0.780681111111
8	15445	4.6	0.780681111111
8	15448	4.7	0.780681111111
8	15451	4.8	0.780681111111
8	15454	4.9	0.780681111111
8	15460	5	0.779292222222
8	15463	5.1	0.779292222222
8	15466	5.2	0.779292222222
8	15469	5.3	0.779292222222
8	15472	5.4	0.779292222222
8	15475	5.5	0.779292222222
8	15478	5.6	0.779292222222
8	15481	5.7	0.779292222222
8	15484	5.8	0.779292222222
8	15487	5.9	0.779292222222
8	15493	6	0.777903333333
8	15496	6.1	0.777903333333
8	15499	6.2	0.777903333333
8	15502	6.3	0.777903333333
8	15505	6.4	0.777903333333
8	15508	6.5	0.777903333333
8	15511	6.6	0.777903333333
8	15514	6.7	0.777903333333
8	15517	6.8	0.777903333333
8	18677	6.9	0.735779438873
8	21901	7	0.692121455993
8	25122	7.1	0.64839972712
8	28300	7.2	0.604647115212
8	30820	7.3	0.570362182974
8	30823	7.4	0.570362182974
8	30826	7.5	0.570362182974
8	30829	7.6	0.570362182974
8	30832	7.7	0.570362182974
8	31737	7.8	0.55992614863
8	34879	7.9	0.517105558394
8	38040	8	0.473308926667
8	41241	8.1	0.429878108828
8	44500	8.2	0.385265814597
8	46137	8.3	0.363252356264
8	46140	8.4	0.363252356264
8	46143	8.5	0.363252356264
8	46146	8.6	0.363252356264
8	46149	8.7	0.363252356264
8	46152	8.8	0.363252356264
8	46155	8.9	0.363252356264
8	46161	9	0.36221
8	46164	9.1	0.36221
8	46167	9.2	0.36221
8	46170	9.3	0.36221
8	46173	9.4	0.36221
8	46176	9.5	0.36221
8	46179	9.6	0.36221
8	46182	9.7	0.36221
8	46185	9.8	0.36221
8	46188	9.9	0.36221
14	0	0	1
14	12	0.1	1
14	15	0.2	1
14	18	0.3	1
14	21	0.4	1
14	24	0.5	1
14	27	0.6	1
14	30	0.7	1
14	33	0.8	1
14	36	0.9	1
14	42	1	0.998611111111
14	45	1.1	0.998611111111
14	48	1.2	0.998611111111
14	51	1.3	0.998611111111
14	54	1.4	0.998611111111
14	57	1.5	0.998611111111
14	60	1.6	0.998611111111
14	63	1.7	0.998611111111
14	66	1.8	0.998611111111
14	69	1.9	0.998611111111
14	75	2	0.997222222222
14	78	2.1	0.997222222222
14	81	2.2	0.997222222222
14	84	2.3	0.997222222222
14	87	2.4	0.997222222222
14	90	2.5	0.997222222222
14	93	2.6	0.997222222222
14	96	2.7	0.997222222222
14	99	2.8	0.997222222222
14	102	2.9	0.997222222222
14	1506	3	0.97937595172
14	4575	3.1	0.936830475426
14	7778	3.2	0.893075322648
14	11035	3.3	0.849131905981
14	14265	3.4	0.804886076542
14	15410	3.5	0.789464869623
14	15413	3.6	0.789464869623
14	15416	3.7	0.789464869623
14	15419	3.8	0.789464869623
14	15422	3.9	0.789464869623
14	15428	4	0.788681111111
14	15431	4.1	0.788681111111
14	15434	4.2	0.788681111111
14	15437	4.3	0.788681111111
14	15440	4.4	0.788681111111
14	15443	4.5	0.788681111111
14	15446	4.6	0.788681111111
14	15449	4.7	0.788681111111
14	15452	4.8	0.788681111111
14	15455	4.9	0.788681111111
14	15461	5	0.787292222222
14	15464	5.1	0.787292222222
14	15467	5.2	0.787292222222
14	15470	5.3	0.787292222222
14	15473	5.4	0.787292222222
14	15476	5.5	0.787292222222
14	15479	5.6	0.787292222222
14	15482	5.7	0.787292222222
14	15485	5.8	0.787292222222
14	15488	5.9	0.787292222222
14	15494	6	0.785903333333
14	15497	6.1	0.785903333333
14	15500	6.2	0.785903333333
14	15503	6.3	0.785903333333
14	15506	6.4	0.785903333333
14	15509	6.5	0.785903333333
14	15512	6.6	0.785903333333
14	15515	6.7	0.785903333333
14	15518	6.8	0.785903333333
14	18678	6.9	0.744155438873
14	21902	7	0.700036794019
14	25123	7.1	0.65639972712
14	28301	7.2	0.612647115212
14	30821	7.3	0.578362182974
14	30824	7.4	0.578362182974
14	30827	7.5	0.578362182974
14	30830	7.6	0.578362182974
14	30833	7.7	0.578362182974
14	31738	7.8	0.567323481963
14	34880	7.9	0.522792669505
14	38041	8	0.477298032927
14	41242	8.1	0.432235442161
14	44501	8.2	0.38598314793
14	46138	8.3	0.363252356264
14	46141	8.4	0.363252356264
14	46144	8.5	0.363252356264
14	46147	8.6	0.363252356264
14	46150	8.7	0.363252356264
14	46153	8.8	0.363252356264
14	46156	8.9	0.363252356264
14	46162	9	0.36221
14	46165	9.1	0.36221
14	46168	9.2	0.36221
14	46171	9.3	0.36221
14	46174	9.4	0.36221
14	46177	9.5	0.36221
14	46180	9.6	0.36221
14	46183	9.7	0.36221
14	46186	9.8	0.36221
14	46189	9.9	0.36221
