version 2
run One-0-20100408-14:34:16-4277
attr configname One
attr datetime 20100408-14:34:16
attr experiment One
attr inifile omnetpp.ini
attr iterationvars ""
attr iterationvars2 $repetition=0
attr measurement ""
attr network sim
attr processid 4277
attr repetition 0
attr replication #0
attr resultdir results
attr runnumber 0
attr seedset 0

vector 1  sim.host[0].batteryStats  capacity  ETV
attr unit  mW-s
1	0	0	10800
1	9	0.6	10080
1	11	0.8	9480
1	16	1	9120
1	24	1.6	8460
1	26	1.8	7860
1	31	2	7500
1	39	2.6	6840
1	41	2.8	6240
1	46	3	5880
1	54	3.6	5220
1	56	3.8	4620
1	61	4	4260
1	69	4.6	3600
1	71	4.8	3000
