version 2
run Three-0-20090817-17:40:29-19126
attr configname Three
attr datetime 20090817-17:40:29
attr experiment Three
attr inifile omnetpp.ini
attr iterationvars ""
attr iterationvars2 $repetition=0
attr measurement ""
attr network sim
attr processid 19126
attr repetition 0
attr replication #0
attr resultdir results
attr runnumber 0
attr seedset 0

vector 1  sim.host[0].batteryStats  capacity(mW-s)  ETV
1	0	0	10800
1	3	0.1	10125
1	6	0.3	9450
1	16	1	9180
1	20	1.1	8505
1	23	1.3	7830
1	33	2	7560
1	37	2.1	6885
1	40	2.3	6210
1	50	3	5940
1	54	3.1	5265
1	57	3.3	4590
1	67	4	4320
1	71	4.1	3645
1	74	4.3	2970
1	84	5	2700
1	88	5.1	2025
1	91	5.3	1350
1	101	6	1080
1	105	6.1	405
1	108	6.3	0
1	109	7	0
1	110	8	0
1	111	9	0
1	112	10	0
1	113	11	0
1	114	12	0
1	115	13	0
1	116	14	0
1	117	15	0
