version 2
run One-0-20100408-14:34:15-4271
attr configname One
attr datetime 20100408-14:34:15
attr experiment One
attr inifile omnetpp.ini
attr iterationvars ""
attr iterationvars2 $repetition=0
attr measurement ""
attr network sim
attr processid 4271
attr repetition 0
attr replication #0
attr resultdir results
attr runnumber 0
attr seedset 0

vector 1  sim.host[0].batteryStats  capacity  ETV
attr unit  mW-s
1	0	0	10800
1	3	0.075	10125
1	6	0.3	9450
1	19	1	8955
1	22	1.2	8130
1	28	1.575	7560
1	36	2	7335
1	39	2.2	6510
1	45	2.575	5940
1	53	3	5715
1	56	3.2	4890
1	62	3.575	4320
1	70	4	4095
1	73	4.2	3270
1	79	4.575	2700
1	87	5	2475
1	90	5.2	1650
1	96	5.575	1080
1	104	6	855
1	107	6.2	30
1	108	6.3	0
1	109	7	0
1	110	8	0
1	111	9	0
1	112	10	0
1	113	11	0
1	114	12	0
1	115	13	0
1	116	14	0
1	117	15	0
