version 2
run Four-0-20100408-14:34:15-4274
attr configname Four
attr datetime 20100408-14:34:15
attr experiment Four
attr inifile omnetpp.ini
attr iterationvars ""
attr iterationvars2 $repetition=0
attr measurement ""
attr network sim
attr processid 4274
attr repetition 0
attr replication #0
attr resultdir results
attr runnumber 0
attr seedset 0

vector 1  sim.host[0].batteryStats  capacity  ETV
attr unit  mW-s
1	0	0	10800
1	3	0.1	10125
1	6	0.3	9450
1	19	1	8955
1	21	1.15	8280
1	28	1.6	7635
1	36	2	7335
1	38	2.15	6660
1	45	2.6	6015
1	53	3	5715
1	55	3.15	5040
1	62	3.6	4395
1	70	4	4095
1	72	4.15	3420
1	79	4.6	2775
1	87	5	2475
1	89	5.15	1800
1	96	5.6	1155
