version 2
run One-0-20100408-14:34:16-4281
attr configname One
attr datetime 20100408-14:34:16
attr experiment One
attr inifile omnetpp.ini
attr iterationvars ""
attr iterationvars2 $repetition=0
attr measurement ""
attr network sim
attr processid 4281
attr repetition 0
attr replication #0
attr resultdir results
attr runnumber 0
attr seedset 0

vector 1  sim.host[0].batteryStats  capacity  ETV
attr unit  mW-s
1	0	0	10800
1	4	0.05	9705
1	6	0.1	9480
1	10	0.2	9030
1	14	0.3	8820
1	17	0.4	8820
1	21	0.5	8760
1	24	0.6	8460
1	27	0.7	8160
1	30	0.8	7860
1	34	0.9	7560
1	41	1	6690
1	44	1.1	6240
1	48	1.2	5790
1	52	1.3	5580
1	55	1.4	5580
1	59	1.5	5520
1	62	1.6	5220
1	65	1.7	4920
1	68	1.8	4620
1	72	1.9	4320
1	79	2	3450
1	82	2.1	3000
1	86	2.2	2550
1	90	2.3	2340
1	93	2.4	2340
1	97	2.5	2280
1	100	2.6	1980
1	103	2.7	1680
1	106	2.8	1380
1	110	2.9	1080
1	117	3	210
1	118	3.05	0
1	119	3.1	0
1	120	3.2	0
1	121	3.3	0
1	122	3.4	0
1	123	3.5	0
1	124	3.6	0
1	125	3.7	0
1	126	3.8	0
1	127	3.9	0
1	128	4	0
1	129	4.1	0
1	130	4.2	0
1	131	4.3	0
1	132	4.4	0
1	133	4.5	0
1	134	4.6	0
1	135	4.7	0
1	136	4.8	0
1	137	4.9	0
1	138	5	0
1	139	5.1	0
1	140	5.2	0
1	141	5.3	0
1	142	5.4	0
1	143	5.5	0
1	144	5.6	0
1	145	5.7	0
1	146	5.8	0
1	147	5.9	0
1	148	6	0
1	149	6.1	0
1	150	6.2	0
1	151	6.3	0
1	152	6.4	0
1	153	6.5	0
1	154	6.6	0
1	155	6.7	0
1	156	6.8	0
1	157	6.9	0
1	158	7	0
1	159	7.1	0
1	160	7.2	0
1	161	7.3	0
1	162	7.4	0
1	163	7.5	0
1	164	7.6	0
1	165	7.7	0
1	166	7.8	0
1	167	7.9	0
1	168	8	0
1	169	8.1	0
1	170	8.2	0
1	171	8.3	0
1	172	8.4	0
1	173	8.5	0
1	174	8.6	0
1	175	8.7	0
1	176	8.8	0
1	177	8.9	0
1	178	9	0
1	179	9.1	0
1	180	9.2	0
1	181	9.3	0
1	182	9.4	0
1	183	9.5	0
1	184	9.6	0
1	185	9.7	0
1	186	9.8	0
1	187	9.9	0
1	188	10	0
