version 2
run One-0-20090817-17:40:30-19134
attr configname One
attr datetime 20090817-17:40:30
attr experiment One
attr inifile omnetpp.ini
attr iterationvars ""
attr iterationvars2 $repetition=0
attr measurement ""
attr network sim
attr processid 19134
attr repetition 0
attr replication #0
attr resultdir results
attr runnumber 0
attr seedset 0

vector 1  sim.host[0].batteryStats  capacity(mW-s)  ETV
1	0	0	10800
1	4	0.05	9705
1	5	0.1	9705
1	9	0.2	9030
1	13	0.3	8820
1	16	0.4	8820
1	20	0.5	8760
1	23	0.6	8610
1	26	0.7	8310
1	29	0.8	8010
1	33	0.9	7560
1	39	1	7230
1	43	1.1	6465
1	47	1.2	5790
1	51	1.3	5580
1	54	1.4	5580
1	58	1.5	5520
1	61	1.6	5370
1	64	1.7	5070
1	67	1.8	4770
1	71	1.9	4320
1	77	2	3990
1	81	2.1	3225
1	85	2.2	2550
1	89	2.3	2340
1	92	2.4	2340
1	96	2.5	2280
1	99	2.6	2130
1	102	2.7	1830
1	105	2.8	1530
1	109	2.9	1080
1	115	3	750
1	118	3.05	0
1	119	3.1	0
1	120	3.2	0
1	121	3.3	0
1	122	3.4	0
1	123	3.5	0
1	124	3.6	0
1	125	3.7	0
1	126	3.8	0
1	127	3.9	0
1	128	4	0
1	129	4.1	0
1	130	4.2	0
1	131	4.3	0
1	132	4.4	0
1	133	4.5	0
1	134	4.6	0
1	135	4.7	0
1	136	4.8	0
1	137	4.9	0
1	138	5	0
1	139	5.1	0
1	140	5.2	0
1	141	5.3	0
1	142	5.4	0
1	143	5.5	0
1	144	5.6	0
1	145	5.7	0
1	146	5.8	0
1	147	5.9	0
1	148	6	0
1	149	6.1	0
1	150	6.2	0
1	151	6.3	0
1	152	6.4	0
1	153	6.5	0
1	154	6.6	0
1	155	6.7	0
1	156	6.8	0
1	157	6.9	0
1	158	7	0
1	159	7.1	0
1	160	7.2	0
1	161	7.3	0
1	162	7.4	0
1	163	7.5	0
1	164	7.6	0
1	165	7.7	0
1	166	7.8	0
1	167	7.9	0
1	168	8	0
1	169	8.1	0
1	170	8.2	0
1	171	8.3	0
1	172	8.4	0
1	173	8.5	0
1	174	8.6	0
1	175	8.7	0
1	176	8.8	0
1	177	8.9	0
1	178	9	0
1	179	9.1	0
1	180	9.2	0
1	181	9.3	0
1	182	9.4	0
1	183	9.5	0
1	184	9.6	0
1	185	9.7	0
1	186	9.8	0
1	187	9.9	0
1	188	10	0
