version 2
run Five-0-20090817-17:40:28-19111
attr configname Five
attr datetime 20090817-17:40:28
attr experiment Five
attr inifile omnetpp.ini
attr iterationvars ""
attr iterationvars2 $repetition=0
attr measurement ""
attr network sim
attr processid 19111
attr repetition 0
attr replication #0
attr resultdir results
attr runnumber 0
attr seedset 0

vector 1  sim.host[0].batteryStats  capacity(mW-s)  ETV
1	0	0	10800
1	3	0.2	10020
1	12	1	9720
1	16	1.2	8940
1	25	2	8640
1	29	2.2	7860
1	38	3	7560
1	42	3.2	6780
1	51	4	6480
1	55	4.2	5700
