version 2
run Seven-0-20100408-14:34:13-4261
attr configname Seven
attr datetime 20100408-14:34:13
attr experiment Seven
attr inifile omnetpp.ini
attr iterationvars ""
attr iterationvars2 $repetition=0
attr measurement ""
attr network sim
attr processid 4261
attr repetition 0
attr replication #0
attr resultdir results
attr runnumber 0
attr seedset 0

vector 1  sim.host[0].batteryStats  capacity  ETV
attr unit  mW-s
1	0	0	10800
1	8	0.5	9720
1	15	1	9540
1	22	1.5	8640
1	29	2	8460
1	36	2.5	7560
1	43	3	7380
1	50	3.5	6480
1	57	4	6300
1	64	4.5	5400
1	71	5	5220
1	78	5.5	4320
1	85	6	4140
1	92	6.5	3240
1	99	7	3060
1	106	7.5	2160
1	113	8	1980
1	120	8.5	1080
1	127	9	900
1	130	9.3	0
1	131	9.5	0
1	132	10	0
1	133	10.5	0
1	134	11	0
1	135	11.5	0
1	136	12	0
1	137	12.5	0
1	138	13	0
1	139	13.5	0
1	140	14	0
1	141	14.5	0
1	142	15	0
