version 2
run Two-0-20100408-14:34:12-4256
attr configname Two
attr datetime 20100408-14:34:12
attr experiment Two
attr inifile omnetpp.ini
attr iterationvars ""
attr iterationvars2 $repetition=0
attr measurement ""
attr network sim
attr processid 4256
attr repetition 0
attr replication #0
attr resultdir results
attr runnumber 0
attr seedset 0

vector 1  sim.host[0].batteryStats  capacity  ETV
attr unit  mW-s
1	0	0	10800
1	2	0.1234	10249.8
1	11	1	9540
1	12	1	9540
1	14	1.234	8838
1	23	2	8460
1	25	2.2212	7796.4
1	34	3	7380
1	36	3.2084	6754.8
1	45	4	6300
1	47	4.1956	5713.2
1	56	5	5220
1	58	5.1828	4671.6
1	67	6	4140
1	70	6.2934	3259.8
1	78	7	3060
1	81	7.2806	2218.2
1	89	8	1980
1	92	8.2678	1176.6
1	100	9	900
1	103	9.255	135
1	104	9.3	0
1	105	10	0
1	106	11	0
1	107	12	0
1	108	13	0
1	109	14	0
1	110	15	0
