version 2
run Eleven-0-20090817-17:40:29-19117
attr configname Eleven
attr datetime 20090817-17:40:29
attr experiment Eleven
attr inifile omnetpp.ini
attr iterationvars ""
attr iterationvars2 $repetition=0
attr measurement ""
attr network sim
attr processid 19117
attr repetition 0
attr replication #0
attr resultdir results
attr runnumber 0
attr seedset 0

vector 1  sim.host[0].batteryStats  capacity(mW-s)  ETV
vector 2  sim.host[0].batteryStats  capacity(relative)  ETV
vector 3  sim.host[0].batteryStats  estimate(mW-s)  ETV
vector 4  sim.host[0].batteryStats  estimate(relative)  ETV
1	0	0	10800
1	3	0.2	10020
1	12	1	9720
1	16	1.2	8940
1	25	2	8640
1	29	2.2	7860
1	38	3	7560
1	42	3.2	6780
1	51	4	6480
1	55	4.2	5700
1	64	5	5400
1	68	5.2	4620
1	77	6	4320
1	81	6.2	3540
1	90	7	3240
1	94	7.2	2460
1	103	8	2160
1	107	8.2	1380
1	116	9	1080
1	120	9.2	300
1	121	9.3	0
1	122	10	0
1	123	11	0
1	124	12	0
1	125	13	0
1	126	14	0
1	127	15	0
2	0	0	1
2	3	0.2	0.927778
2	12	1	0.9
2	16	1.2	0.827778
2	25	2	0.8
2	29	2.2	0.727778
2	38	3	0.7
2	42	3.2	0.627778
2	51	4	0.6
2	55	4.2	0.527778
2	64	5	0.5
2	68	5.2	0.427778
2	77	6	0.4
2	81	6.2	0.327778
2	90	7	0.3
2	94	7.2	0.227778
2	103	8	0.2
2	107	8.2	0.127778
2	116	9	0.1
2	120	9.2	0.0277778
2	121	9.3	0
2	122	10	0
2	123	11	0
2	124	12	0
2	125	13	0
2	126	14	0
2	127	15	0
3	0	0	10800
3	3	0.2	10020
3	12	1	9720
3	16	1.2	8940
3	25	2	8640
3	29	2.2	7860
3	38	3	7560
3	42	3.2	6780
3	51	4	6480
3	55	4.2	5700
3	64	5	5400
3	68	5.2	4620
3	77	6	4320
3	81	6.2	3540
3	90	7	3240
3	94	7.2	2460
3	103	8	2160
3	107	8.2	1380
3	116	9	1080
3	120	9.2	300
3	121	9.3	0
3	122	10	0
3	123	11	0
3	124	12	0
3	125	13	0
3	126	14	0
3	127	15	0
4	0	0	1
4	3	0.2	0.927778
4	12	1	0.9
4	16	1.2	0.827778
4	25	2	0.8
4	29	2.2	0.727778
4	38	3	0.7
4	42	3.2	0.627778
4	51	4	0.6
4	55	4.2	0.527778
4	64	5	0.5
4	68	5.2	0.427778
4	77	6	0.4
4	81	6.2	0.327778
4	90	7	0.3
4	94	7.2	0.227778
4	103	8	0.2
4	107	8.2	0.127778
4	116	9	0.1
4	120	9.2	0.0277778
4	121	9.3	0
4	122	10	0
4	123	11	0
4	124	12	0
4	125	13	0
4	126	14	0
4	127	15	0
