version 2
run Three-0-20090817-17:40:28-19109
attr configname Three
attr datetime 20090817-17:40:28
attr experiment Three
attr inifile omnetpp.ini
attr iterationvars ""
attr iterationvars2 $repetition=0
attr measurement ""
attr network sim
attr processid 19109
attr repetition 0
attr replication #0
attr resultdir results
attr runnumber 0
attr seedset 0

vector 1  sim.host[0].batteryStats  capacity(mW-s)  ETV
1	0	0	10800
1	2	0.3	9720
1	4	1	9720
1	7	1.3	8640
1	9	2	8640
1	12	2.3	7560
1	14	3	7560
1	17	3.3	6480
1	19	4	6480
1	22	4.3	5400
1	24	5	5400
1	27	5.3	4320
1	29	6	4320
1	32	6.3	3240
1	34	7	3240
1	37	7.3	2160
1	39	8	2160
1	42	8.3	1080
1	44	9	1080
1	47	9.3	0
1	48	10	0
1	49	11	0
1	50	12	0
1	51	13	0
1	52	14	0
1	53	15	0
