version 2
run One-0-20090817-17:40:28-19107
attr configname One
attr datetime 20090817-17:40:28
attr experiment One
attr inifile omnetpp.ini
attr iterationvars ""
attr iterationvars2 $repetition=0
attr measurement ""
attr network sim
attr processid 19107
attr repetition 0
attr replication #0
attr resultdir results
attr runnumber 0
attr seedset 0

vector 1  sim.host[0].batteryStats  capacity(mW-s)  ETV
1	0	0	10800
1	3	0.2	10020
1	12	1	9720
1	16	1.2	8940
1	25	2	8640
1	29	2.2	7860
1	38	3	7560
1	42	3.2	6780
1	51	4	6480
1	55	4.2	5700
1	64	5	5400
1	68	5.2	4620
1	77	6	4320
1	81	6.2	3540
1	90	7	3240
1	94	7.2	2460
1	103	8	2160
1	107	8.2	1380
1	116	9	1080
1	120	9.2	300
1	121	9.3	0
1	122	10	0
1	123	11	0
1	124	12	0
1	125	13	0
1	126	14	0
1	127	15	0
