version 2
run Five-0-20090826-15:15:25-9435
attr configname Five
attr datetime 20090826-15:15:25
attr experiment Five
attr inifile omnetpp.ini
attr iterationvars ""
attr iterationvars2 $repetition=0
attr measurement ""
attr network sim
attr processid 9435
attr repetition 0
attr replication #0
attr resultdir results
attr runnumber 0
attr seedset 0

vector 1  sim.host[0].batteryStats  capacity(mW-s)  ETV
1	0	0	10800
1	3	0.2	10020
1	14	1	9540
1	16	1.2	8940
1	27	2	8460
1	29	2.2	7860
1	40	3	7380
1	42	3.2	6780
1	53	4	6300
1	55	4.2	5700
