version 2
run Eleven-0-20100408-14:34:14-4265
attr configname Eleven
attr datetime 20100408-14:34:14
attr experiment Eleven
attr inifile omnetpp.ini
attr iterationvars ""
attr iterationvars2 $repetition=0
attr measurement ""
attr network sim
attr processid 4265
attr repetition 0
attr replication #0
attr resultdir results
attr runnumber 0
attr seedset 0

vector 1  sim.host[0].batteryStats  capacity  ETV
attr unit  mW-s
vector 2  sim.host[0].batteryStats  capacity(relative)  ETV
vector 3  sim.host[0].batteryStats  estimate  ETV
attr unit  mW-s
vector 4  sim.host[0].batteryStats  estimate(relative)  ETV
1	0	0	10800
1	3	0.2	10020
1	14	1	9540
1	16	1.2	8940
1	27	2	8460
1	29	2.2	7860
1	40	3	7380
1	42	3.2	6780
1	53	4	6300
1	55	4.2	5700
1	66	5	5220
1	68	5.2	4620
1	79	6	4140
1	81	6.2	3540
1	92	7	3060
1	94	7.2	2460
1	105	8	1980
1	107	8.2	1380
1	118	9	900
1	120	9.2	300
1	121	9.3	0
1	122	10	0
1	123	11	0
1	124	12	0
1	125	13	0
1	126	14	0
1	127	15	0
2	0	0	1
2	3	0.2	0.927778
2	14	1	0.883333
2	16	1.2	0.827778
2	27	2	0.783333
2	29	2.2	0.727778
2	40	3	0.683333
2	42	3.2	0.627778
2	53	4	0.583333
2	55	4.2	0.527778
2	66	5	0.483333
2	68	5.2	0.427778
2	79	6	0.383333
2	81	6.2	0.327778
2	92	7	0.283333
2	94	7.2	0.227778
2	105	8	0.183333
2	107	8.2	0.127778
2	118	9	0.0833333
2	120	9.2	0.0277778
2	121	9.3	0
2	122	10	0
2	123	11	0
2	124	12	0
2	125	13	0
2	126	14	0
2	127	15	0
3	0	0	10800
3	3	0.2	10020
3	14	1	9540
3	16	1.2	8940
3	27	2	8460
3	29	2.2	7860
3	40	3	7380
3	42	3.2	6780
3	53	4	6300
3	55	4.2	5700
3	66	5	5220
3	68	5.2	4620
3	79	6	4140
3	81	6.2	3540
3	92	7	3060
3	94	7.2	2460
3	105	8	1980
3	107	8.2	1380
3	118	9	900
3	120	9.2	300
3	121	9.3	0
3	122	10	0
3	123	11	0
3	124	12	0
3	125	13	0
3	126	14	0
3	127	15	0
4	0	0	1
4	3	0.2	0.927778
4	14	1	0.883333
4	16	1.2	0.827778
4	27	2	0.783333
4	29	2.2	0.727778
4	40	3	0.683333
4	42	3.2	0.627778
4	53	4	0.583333
4	55	4.2	0.527778
4	66	5	0.483333
4	68	5.2	0.427778
4	79	6	0.383333
4	81	6.2	0.327778
4	92	7	0.283333
4	94	7.2	0.227778
4	105	8	0.183333
4	107	8.2	0.127778
4	118	9	0.0833333
4	120	9.2	0.0277778
4	121	9.3	0
4	122	10	0
4	123	11	0
4	124	12	0
4	125	13	0
4	126	14	0
4	127	15	0
