version 2
run Two-0-20090817-17:40:28-19108
attr configname Two
attr datetime 20090817-17:40:28
attr experiment Two
attr inifile omnetpp.ini
attr iterationvars ""
attr iterationvars2 $repetition=0
attr measurement ""
attr network sim
attr processid 19108
attr repetition 0
attr replication #0
attr resultdir results
attr runnumber 0
attr seedset 0

vector 1  sim.host[0].batteryStats  capacity(mW-s)  ETV
1	0	0	10800
1	2	0.1234	10249.8
1	11	1	9720
1	14	1.234	8838
1	22	2	8640
1	25	2.2212	7796.4
1	33	3	7560
1	36	3.2084	6754.8
1	44	4	6480
1	47	4.1956	5713.2
1	55	5	5400
1	58	5.1828	4671.6
1	66	6	4320
1	69	6.17	3630
1	77	7	3240
1	80	7.1572	2588.4
1	88	8	2160
1	91	8.1444	1546.8
1	99	9	1080
1	102	9.1316	505.2
1	104	9.3	0
1	105	10	0
1	106	11	0
1	107	12	0
1	108	13	0
1	109	14	0
1	110	15	0
