version 2
run Ten-0-20100408-14:34:14-4264
attr configname Ten
attr datetime 20100408-14:34:14
attr experiment Ten
attr inifile omnetpp.ini
attr iterationvars ""
attr iterationvars2 $repetition=0
attr measurement ""
attr network sim
attr processid 4264
attr repetition 0
attr replication #0
attr resultdir results
attr runnumber 0
attr seedset 0

vector 1  sim.host[0].batteryStats  capacity  ETV
attr unit  mW-s
1	0	0	10800
1	6	0.125	10245
1	42	1	9540
1	51	1.2	8940
1	86	2.025	8385
1	94	2.225	7785
1	129	3.05	7230
1	137	3.25	6630
1	172	4.075	6075
1	180	4.275	5475
1	215	5.1	4920
1	223	5.3	4320
1	258	6.125	3765
1	294	7	3060
1	303	7.2	2460
1	338	8.025	1905
1	346	8.225	1305
1	381	9.05	750
1	389	9.25	150
1	391	9.3	0
