version 2
run Seven-0-20090817-17:40:29-19113
attr configname Seven
attr datetime 20090817-17:40:29
attr experiment Seven
attr inifile omnetpp.ini
attr iterationvars ""
attr iterationvars2 $repetition=0
attr measurement ""
attr network sim
attr processid 19113
attr repetition 0
attr replication #0
attr resultdir results
attr runnumber 0
attr seedset 0

vector 1  sim.host[0].batteryStats  capacity(mW-s)  ETV
1	0	0	10800
1	7	0.5	9720
1	14	1	9540
1	21	1.5	8640
1	28	2	8460
1	35	2.5	7560
1	42	3	7380
1	49	3.5	6480
1	56	4	6300
1	63	4.5	5400
1	70	5	5220
1	77	5.5	4320
1	84	6	4140
1	91	6.5	3240
1	98	7	3060
1	105	7.5	2160
1	112	8	1980
1	119	8.5	1080
1	126	9	900
1	130	9.3	0
1	131	9.5	0
1	132	10	0
1	133	10.5	0
1	134	11	0
1	135	11.5	0
1	136	12	0
1	137	12.5	0
1	138	13	0
1	139	13.5	0
1	140	14	0
1	141	14.5	0
1	142	15	0
