version 2
run Eight-0-20100408-14:34:13-4262
attr configname Eight
attr datetime 20100408-14:34:13
attr experiment Eight
attr inifile omnetpp.ini
attr iterationvars ""
attr iterationvars2 $repetition=0
attr measurement ""
attr network sim
attr processid 4262
attr repetition 0
attr replication #0
attr resultdir results
attr runnumber 0
attr seedset 0

vector 1  sim.host[0].batteryStats  capacity  ETV
attr unit  mW-s
1	0	0	10800
1	2	0.05	10620
1	4	0.1	10320
1	5	0.15	10320
1	7	0.2	10020
1	8	0.25	10020
1	11	0.3	9720
1	12	0.35	9720
1	14	0.4	9720
1	15	0.45	9720
1	17	0.5	9720
1	18	0.55	9720
1	20	0.6	9720
1	21	0.65	9720
1	23	0.7	9720
1	24	0.75	9720
1	26	0.8	9720
1	27	0.85	9720
1	29	0.9	9720
1	30	0.95	9720
1	33	1	9540
1	34	1.05	9540
1	36	1.1	9240
1	37	1.15	9240
1	39	1.2	8940
1	40	1.25	8940
1	43	1.3	8640
1	44	1.35	8640
1	46	1.4	8640
1	47	1.45	8640
1	49	1.5	8640
1	50	1.55	8640
1	52	1.6	8640
1	53	1.65	8640
1	55	1.7	8640
1	56	1.75	8640
1	58	1.8	8640
1	59	1.85	8640
1	61	1.9	8640
1	62	1.95	8640
1	65	2	8460
1	66	2.05	8460
1	68	2.1	8160
1	69	2.15	8160
1	71	2.2	7860
1	72	2.25	7860
1	75	2.3	7560
1	76	2.35	7560
1	78	2.4	7560
1	79	2.45	7560
1	81	2.5	7560
1	82	2.55	7560
1	84	2.6	7560
1	85	2.65	7560
1	87	2.7	7560
1	88	2.75	7560
1	90	2.8	7560
1	91	2.85	7560
1	93	2.9	7560
1	94	2.95	7560
1	97	3	7380
1	98	3.05	7380
1	100	3.1	7080
1	101	3.15	7080
1	103	3.2	6780
1	104	3.25	6780
1	107	3.3	6480
1	108	3.35	6480
1	110	3.4	6480
1	111	3.45	6480
1	113	3.5	6480
1	114	3.55	6480
1	116	3.6	6480
1	117	3.65	6480
1	119	3.7	6480
1	120	3.75	6480
1	122	3.8	6480
1	123	3.85	6480
1	125	3.9	6480
1	126	3.95	6480
1	129	4	6300
1	130	4.05	6300
1	132	4.1	6000
1	133	4.15	6000
1	135	4.2	5700
1	136	4.25	5700
1	139	4.3	5400
1	140	4.35	5400
1	142	4.4	5400
1	143	4.45	5400
1	145	4.5	5400
1	146	4.55	5400
1	148	4.6	5400
1	149	4.65	5400
1	151	4.7	5400
1	152	4.75	5400
1	154	4.8	5400
1	155	4.85	5400
1	157	4.9	5400
1	158	4.95	5400
1	161	5	5220
1	162	5.05	5220
1	164	5.1	4920
1	165	5.15	4920
1	167	5.2	4620
1	168	5.25	4620
1	171	5.3	4320
1	172	5.35	4320
1	174	5.4	4320
1	175	5.45	4320
1	177	5.5	4320
1	178	5.55	4320
1	180	5.6	4320
1	181	5.65	4320
1	183	5.7	4320
1	184	5.75	4320
1	186	5.8	4320
1	187	5.85	4320
1	189	5.9	4320
1	190	5.95	4320
1	193	6	4140
1	194	6.05	4140
1	196	6.1	3840
1	197	6.15	3840
1	199	6.2	3540
1	200	6.25	3540
1	203	6.3	3240
1	204	6.35	3240
1	206	6.4	3240
1	207	6.45	3240
1	209	6.5	3240
1	210	6.55	3240
1	212	6.6	3240
1	213	6.65	3240
1	215	6.7	3240
1	216	6.75	3240
1	218	6.8	3240
1	219	6.85	3240
1	221	6.9	3240
1	222	6.95	3240
1	225	7	3060
1	226	7.05	3060
1	228	7.1	2760
1	229	7.15	2760
1	231	7.2	2460
1	232	7.25	2460
1	235	7.3	2160
1	236	7.35	2160
1	238	7.4	2160
1	239	7.45	2160
1	241	7.5	2160
1	242	7.55	2160
1	244	7.6	2160
1	245	7.65	2160
1	247	7.7	2160
1	248	7.75	2160
1	250	7.8	2160
1	251	7.85	2160
1	253	7.9	2160
1	254	7.95	2160
1	257	8	1980
1	258	8.05	1980
1	260	8.1	1680
1	261	8.15	1680
1	263	8.2	1380
1	264	8.25	1380
1	267	8.3	1080
1	268	8.35	1080
1	270	8.4	1080
1	271	8.45	1080
1	273	8.5	1080
1	274	8.55	1080
1	276	8.6	1080
1	277	8.65	1080
1	279	8.7	1080
1	280	8.75	1080
1	282	8.8	1080
1	283	8.85	1080
1	285	8.9	1080
1	286	8.95	1080
1	289	9	900
1	290	9.05	900
1	292	9.1	600
1	293	9.15	600
1	295	9.2	300
1	296	9.25	300
1	297	9.3	0
1	298	9.3	0
1	299	9.35	0
1	300	9.4	0
1	301	9.45	0
1	302	9.5	0
1	303	9.55	0
1	304	9.6	0
1	305	9.65	0
1	306	9.7	0
1	307	9.75	0
1	308	9.8	0
1	309	9.85	0
1	310	9.9	0
1	311	9.95	0
1	312	10	0
1	313	10.05	0
1	314	10.1	0
1	315	10.15	0
1	316	10.2	0
1	317	10.25	0
1	318	10.3	0
1	319	10.35	0
1	320	10.4	0
1	321	10.45	0
1	322	10.5	0
1	323	10.55	0
1	324	10.6	0
1	325	10.65	0
1	326	10.7	0
1	327	10.75	0
1	328	10.8	0
1	329	10.85	0
1	330	10.9	0
1	331	10.95	0
1	332	11	0
1	333	11.05	0
1	334	11.1	0
1	335	11.15	0
1	336	11.2	0
1	337	11.25	0
1	338	11.3	0
1	339	11.35	0
1	340	11.4	0
1	341	11.45	0
1	342	11.5	0
1	343	11.55	0
1	344	11.6	0
1	345	11.65	0
1	346	11.7	0
1	347	11.75	0
1	348	11.8	0
1	349	11.85	0
1	350	11.9	0
1	351	11.95	0
1	352	12	0
1	353	12.05	0
1	354	12.1	0
1	355	12.15	0
1	356	12.2	0
1	357	12.25	0
1	358	12.3	0
1	359	12.35	0
1	360	12.4	0
1	361	12.45	0
1	362	12.5	0
1	363	12.55	0
1	364	12.6	0
1	365	12.65	0
1	366	12.7	0
1	367	12.75	0
1	368	12.8	0
1	369	12.85	0
1	370	12.9	0
1	371	12.95	0
1	372	13	0
1	373	13.05	0
1	374	13.1	0
1	375	13.15	0
1	376	13.2	0
1	377	13.25	0
1	378	13.3	0
1	379	13.35	0
1	380	13.4	0
1	381	13.45	0
1	382	13.5	0
1	383	13.55	0
1	384	13.6	0
1	385	13.65	0
1	386	13.7	0
1	387	13.75	0
1	388	13.8	0
1	389	13.85	0
1	390	13.9	0
1	391	13.95	0
1	392	14	0
1	393	14.05	0
1	394	14.1	0
1	395	14.15	0
1	396	14.2	0
1	397	14.25	0
1	398	14.3	0
1	399	14.35	0
1	400	14.4	0
1	401	14.45	0
1	402	14.5	0
1	403	14.55	0
1	404	14.6	0
1	405	14.65	0
1	406	14.7	0
1	407	14.75	0
1	408	14.8	0
1	409	14.85	0
1	410	14.9	0
1	411	14.95	0
1	412	15	0
