version 2
run Four-0-20100408-14:34:12-4258
attr configname Four
attr datetime 20100408-14:34:12
attr experiment Four
attr inifile omnetpp.ini
attr iterationvars ""
attr iterationvars2 $repetition=0
attr measurement ""
attr network sim
attr processid 4258
attr repetition 0
attr replication #0
attr resultdir results
attr runnumber 0
attr seedset 0

vector 1  sim.host[0].batteryStats  capacity  ETV
attr unit  mW-s
1	0	0	8100
1	2	0.1	7620
1	4	0.3	7020
1	14	1	6840
1	16	1.2	6240
1	25	2	5760
1	27	2	5760
1	29	2.2	5160
1	38	3	4680
1	40	3	4680
1	42	3.2	4080
1	51	4	3600
1	53	4	3600
1	55	4.2	3000
1	64	5	2520
1	66	5	2520
1	68	5.2	1920
1	77	6	1440
1	79	6	1440
1	81	6.2	840
1	90	7	360
1	92	7	360
1	94	7.2	0
1	95	8	0
1	96	9	0
1	97	10	0
1	98	11	0
1	99	12	0
1	100	13	0
1	101	14	0
1	102	15	0
