version 2
run Four-0-20090817-17:40:28-19110
attr configname Four
attr datetime 20090817-17:40:28
attr experiment Four
attr inifile omnetpp.ini
attr iterationvars ""
attr iterationvars2 $repetition=0
attr measurement ""
attr network sim
attr processid 19110
attr repetition 0
attr replication #0
attr resultdir results
attr runnumber 0
attr seedset 0

vector 1  sim.host[0].batteryStats  capacity(mW-s)  ETV
1	0	0	8100
1	2	0.1	7620
1	4	0.3	7020
1	12	1	7020
1	15	1.1	6540
1	17	1.3	5940
1	25	2	5940
1	28	2.1	5460
1	30	2.3	4860
1	38	3	4860
1	41	3.1	4380
1	43	3.3	3780
1	51	4	3780
1	54	4.1	3300
1	56	4.3	2700
1	64	5	2700
1	67	5.1	2220
1	69	5.3	1620
1	77	6	1620
1	80	6.1	1140
1	82	6.3	540
1	90	7	540
1	93	7.1	60
1	94	7.2	0
1	95	8	0
1	96	9	0
1	97	10	0
1	98	11	0
1	99	12	0
1	100	13	0
1	101	14	0
1	102	15	0
