version 2
run Six-0-20100408-14:34:13-4260
attr configname Six
attr datetime 20100408-14:34:13
attr experiment Six
attr inifile omnetpp.ini
attr iterationvars ""
attr iterationvars2 $repetition=0
attr measurement ""
attr network sim
attr processid 4260
attr repetition 0
attr replication #0
attr resultdir results
attr runnumber 0
attr seedset 0

vector 1  sim.host[0].batteryStats  capacity  ETV
attr unit  mW-s
1	0	0	10800
1	4	0.15	10170
1	22	1	9540
1	24	1	9540
1	28	1.2	8940
1	47	2	8460
1	51	2.2	7860
1	70	3	7380
1	74	3.2	6780
1	93	4	6300
1	97	4.2	5700
