version 2
run Nine-0-20100408-14:34:13-4263
attr configname Nine
attr datetime 20100408-14:34:13
attr experiment Nine
attr inifile omnetpp.ini
attr iterationvars ""
attr iterationvars2 $repetition=0
attr measurement ""
attr network sim
attr processid 4263
attr repetition 0
attr replication #0
attr resultdir results
attr runnumber 0
attr seedset 0

vector 1  sim.host[0].batteryStats  capacity  ETV
attr unit  mW-s
1	0	0	10800
1	3	0.2	10020
1	14	1.1	9240
1	16	1.3	8640
1	27	2.2	7860
1	38	3.1	7080
1	40	3.3	6480
1	51	4.2	5700
1	62	5.1	4920
1	64	5.3	4320
1	75	6.2	3540
1	86	7.1	2760
1	88	7.3	2160
1	99	8.2	1380
1	110	9.1	600
1	112	9.3	0
