version 2
run Three-0-20100408-14:34:12-4257
attr configname Three
attr datetime 20100408-14:34:12
attr experiment Three
attr inifile omnetpp.ini
attr iterationvars ""
attr iterationvars2 $repetition=0
attr measurement ""
attr network sim
attr processid 4257
attr repetition 0
attr replication #0
attr resultdir results
attr runnumber 0
attr seedset 0

vector 1  sim.host[0].batteryStats  capacity  ETV
attr unit  mW-s
1	0	0	10800
1	2	0.3	9720
1	6	1	9540
1	7	1.3	8640
1	11	2	8460
1	12	2.3	7560
1	16	3	7380
1	17	3.3	6480
1	21	4	6300
1	22	4.3	5400
1	26	5	5220
1	27	5.3	4320
1	31	6	4140
1	32	6.3	3240
1	36	7	3060
1	37	7.3	2160
1	41	8	1980
1	42	8.3	1080
1	46	9	900
1	47	9.3	0
1	48	10	0
1	49	11	0
1	50	12	0
1	51	13	0
1	52	14	0
1	53	15	0
