version 2
run Twelve-0-20100408-14:34:14-4266
attr configname Twelve
attr datetime 20100408-14:34:14
attr experiment Twelve
attr inifile omnetpp.ini
attr iterationvars ""
attr iterationvars2 $repetition=0
attr measurement ""
attr network sim
attr processid 4266
attr repetition 0
attr replication #0
attr resultdir results
attr runnumber 0
attr seedset 0

vector 1  sim.host[0].batteryStats  capacity  ETV
attr unit  mW-s
vector 2  sim.host[0].batteryStats  capacity(relative)  ETV
vector 3  sim.host[0].batteryStats  estimate  ETV
attr unit  mW-s
vector 4  sim.host[0].batteryStats  estimate(relative)  ETV
1	0	0	5400
1	2	0.1	4920
1	3	0.2	4620
1	4	0.3	4320
1	14	1	4140
1	15	1.1	3840
1	16	1.2	3540
1	17	1.3	3240
1	27	2	3060
1	28	2.1	2760
1	29	2.2	2460
1	30	2.3	2160
1	40	3	1980
1	41	3.1	1680
1	42	3.2	1380
1	43	3.3	1080
1	53	4	900
1	54	4.1	600
1	55	4.2	300
1	56	4.3	0
1	57	5	0
1	58	6	0
1	59	7	0
1	60	8	0
1	61	9	0
1	62	10	0
1	63	11	0
1	64	12	0
1	65	13	0
1	66	14	0
1	67	15	0
2	0	0	0.5
2	2	0.1	0.455556
2	3	0.2	0.427778
2	4	0.3	0.4
2	14	1	0.383333
2	15	1.1	0.355556
2	16	1.2	0.327778
2	17	1.3	0.3
2	27	2	0.283333
2	28	2.1	0.255556
2	29	2.2	0.227778
2	30	2.3	0.2
2	40	3	0.183333
2	41	3.1	0.155556
2	42	3.2	0.127778
2	43	3.3	0.1
2	53	4	0.0833333
2	54	4.1	0.0555556
2	55	4.2	0.0277778
2	56	4.3	0
2	57	5	0
2	58	6	0
2	59	7	0
2	60	8	0
2	61	9	0
2	62	10	0
2	63	11	0
2	64	12	0
2	65	13	0
2	66	14	0
2	67	15	0
3	0	0	5400
3	2	0.1	4920
3	3	0.2	4620
3	4	0.3	4320
3	14	1	4140
3	15	1.1	3840
3	16	1.2	3540
3	17	1.3	3240
3	27	2	3060
3	28	2.1	2760
3	29	2.2	2460
3	30	2.3	2160
3	40	3	1980
3	41	3.1	1680
3	42	3.2	1380
3	43	3.3	1080
3	53	4	900
3	54	4.1	600
3	55	4.2	300
3	56	4.3	0
3	57	5	0
3	58	6	0
3	59	7	0
3	60	8	0
3	61	9	0
3	62	10	0
3	63	11	0
3	64	12	0
3	65	13	0
3	66	14	0
3	67	15	0
4	0	0	0.5
4	2	0.1	0.455556
4	3	0.2	0.427778
4	4	0.3	0.4
4	14	1	0.383333
4	15	1.1	0.355556
4	16	1.2	0.327778
4	17	1.3	0.3
4	27	2	0.283333
4	28	2.1	0.255556
4	29	2.2	0.227778
4	30	2.3	0.2
4	40	3	0.183333
4	41	3.1	0.155556
4	42	3.2	0.127778
4	43	3.3	0.1
4	53	4	0.0833333
4	54	4.1	0.0555556
4	55	4.2	0.0277778
4	56	4.3	0
4	57	5	0
4	58	6	0
4	59	7	0
4	60	8	0
4	61	9	0
4	62	10	0
4	63	11	0
4	64	12	0
4	65	13	0
4	66	14	0
4	67	15	0
