version 2
run One-0-20100408-14:34:12-4255
attr configname One
attr datetime 20100408-14:34:12
attr experiment One
attr inifile omnetpp.ini
attr iterationvars ""
attr iterationvars2 $repetition=0
attr measurement ""
attr network sim
attr processid 4255
attr repetition 0
attr replication #0
attr resultdir results
attr runnumber 0
attr seedset 0

vector 1  sim.host[0].batteryStats  capacity  ETV
attr unit  mW-s
1	0	0	10800
1	3	0.2	10020
1	14	1	9540
1	16	1.2	8940
1	27	2	8460
1	29	2.2	7860
1	40	3	7380
1	42	3.2	6780
1	53	4	6300
1	55	4.2	5700
1	66	5	5220
1	68	5.2	4620
1	79	6	4140
1	81	6.2	3540
1	92	7	3060
1	94	7.2	2460
1	105	8	1980
1	107	8.2	1380
1	118	9	900
1	120	9.2	300
1	121	9.3	0
1	122	10	0
1	123	11	0
1	124	12	0
1	125	13	0
1	126	14	0
1	127	15	0
