<?xml version="1.0" encoding="UTF-8"?>

<!-- generated on jeu. 22 févr. 2018 15:46:04 CET by SUMO gui Version 0.30.0
<?xml version="1.0" encoding="UTF-8"?>

<configuration xmlns:xsi="http://www.w3.org/2001/XMLSchema-instance" xsi:noNamespaceSchemaLocation="http://sumo.dlr.de/xsd/sumoConfiguration.xsd">

    <input>
        <net-file value="lust.net.xml"/>
        <route-files value="buslines.rou.xml,due.local.actuated.0.rou.xml,due.local.actuated.1.rou.xml,due.local.actuated.2.rou.xml,transit.rou.xml"/>
        <additional-files value="vtypes.add.xml,busstops.add.xml,e1detectors.add.xml,lust.poly.xml"/>
    </input>

    <output>
        <summary-output value="due.actuated.summary.xml"/>
        <tripinfo-output value="due.actuated.tripinfo.xml"/>
    </output>

    <time>
        <begin value="0"/>
        <step-length value="1"/>
    </time>

    <processing>
        <ignore-junction-blocker value="20"/>
        <time-to-teleport value="600"/>
        <max-depart-delay value="600"/>
    </processing>

    <routing>
        <routing-algorithm value="dijkstra"/>
    </routing>

    <report>
        <verbose value="true"/>
        <log value="due.actuated.log"/>
    </report>

</configuration>
-->

<tripinfos xmlns:xsi="http://www.w3.org/2001/XMLSchema-instance" xsi:noNamespaceSchemaLocation="http://sumo.dlr.de/xsd/tripinfo_file.xsd">
    <tripinfo id="randUni834:1" depart="5.00" departLane="--32406#3_0" departPos="24.91" departSpeed="0.00" departDelay="0.00" arrival="41.00" arrivalLane="--31212_0" arrivalPos="134.87" arrivalSpeed="0.13" duration="36.00" routeLength="438.36" waitSteps="0" timeLoss="8.02" rerouteNo="0" devices="tripinfo_randUni834:1" vType="passenger2b" speedFactor="1.13" vaporized=""/>
    <tripinfo id="randUni16882:1" depart="14.00" departLane="-32340#7_0" departPos="147.64" departSpeed="0.00" departDelay="0.00" arrival="115.00" arrivalLane="-32660_0" arrivalPos="113.23" arrivalSpeed="0.75" duration="101.00" routeLength="1209.03" waitSteps="0" timeLoss="14.41" rerouteNo="0" devices="tripinfo_randUni16882:1" vType="passenger1" speedFactor="1.01" vaporized=""/>
    <tripinfo id="randUni11317:1" depart="11.00" departLane="--31490_0" departPos="11.66" departSpeed="0.00" departDelay="0.00" arrival="261.00" arrivalLane="-31290#1_0" arrivalPos="37.03" arrivalSpeed="0.18" duration="250.00" routeLength="1772.08" waitSteps="89" timeLoss="127.83" rerouteNo="0" devices="tripinfo_randUni11317:1" vType="passenger2a" speedFactor="1.04" vaporized=""/>
    <tripinfo id="NBSKMS_Nightbus_0" depart="39.00" departLane="-32278#1_0" departPos="0.00" departSpeed="0.00" departDelay="0.00" arrival="279.00" arrivalLane="-32278#5_0" arrivalPos="841.44" arrivalSpeed="14.63" duration="240.00" routeLength="1905.19" waitSteps="15" timeLoss="52.71" rerouteNo="0" devices="tripinfo_NBSKMS_Nightbus_0" vType="bus" speedFactor="1.11" vaporized=""/>
    <tripinfo id="0FRtoLU.0" depart="42.00" departLane="-32426#0_0" departPos="5.10" departSpeed="13.89" departDelay="0.00" arrival="329.00" arrivalLane="-32400#5_0" arrivalPos="257.03" arrivalSpeed="31.09" duration="287.00" routeLength="6507.94" waitSteps="0" timeLoss="15.56" rerouteNo="0" devices="tripinfo_0FRtoLU.0" vType="passenger1" speedFactor="0.88" vaporized=""/>
    <tripinfo id="NBSKMS_Nightbus_1" depart="39.00" departLane="--32278#5_0" departPos="0.00" departSpeed="0.00" departDelay="0.00" arrival="329.00" arrivalLane="--32278#1_0" arrivalPos="139.07" arrivalSpeed="11.55" duration="290.00" routeLength="1910.02" waitSteps="32" timeLoss="61.57" rerouteNo="0" devices="tripinfo_NBSKMS_Nightbus_1" vType="bus" speedFactor="0.83" vaporized=""/>
    <tripinfo id="0FRtoLU.1" depart="63.00" departLane="-32426#0_0" departPos="5.10" departSpeed="13.89" departDelay="0.00" arrival="331.00" arrivalLane="-32400#5_0" arrivalPos="257.03" arrivalSpeed="36.03" duration="268.00" routeLength="6507.94" waitSteps="0" timeLoss="34.27" rerouteNo="0" devices="tripinfo_0FRtoLU.1" vType="passenger1" speedFactor="1.03" vaporized=""/>
    <tripinfo id="randUni13606:1" depart="27.00" departLane="--32244_0" departPos="2.70" departSpeed="0.00" departDelay="0.00" arrival="342.00" arrivalLane="-31068#1_0" arrivalPos="114.88" arrivalSpeed="0.11" duration="315.00" routeLength="3038.09" waitSteps="61" timeLoss="105.43" rerouteNo="0" devices="tripinfo_randUni13606:1" vType="passenger4" speedFactor="1.03" vaporized=""/>
    <tripinfo id="randUni3742:1" depart="283.00" departLane="--32124#1_0" departPos="134.27" departSpeed="0.00" departDelay="0.00" arrival="359.00" arrivalLane="--31894#2_0" arrivalPos="4.00" arrivalSpeed="0.14" duration="76.00" routeLength="335.47" waitSteps="41" timeLoss="56.55" rerouteNo="0" devices="tripinfo_randUni3742:1" vType="passenger2a" speedFactor="1.21" vaporized=""/>
    <tripinfo id="0DEtoLU.0" depart="15.00" departLane="-31622#0_0" departPos="4.60" departSpeed="13.89" departDelay="0.00" arrival="364.00" arrivalLane="-32400#5_1" arrivalPos="257.03" arrivalSpeed="38.05" duration="349.00" routeLength="11354.22" waitSteps="0" timeLoss="14.12" rerouteNo="0" devices="tripinfo_0DEtoLU.0" vType="passenger2a" speedFactor="1.05" vaporized=""/>
    <tripinfo id="0DEtoLU.1" depart="43.00" departLane="-31622#0_0" departPos="6.10" departSpeed="13.89" departDelay="0.00" arrival="380.00" arrivalLane="-32400#5_1" arrivalPos="257.03" arrivalSpeed="38.71" duration="337.00" routeLength="11352.72" waitSteps="0" timeLoss="13.81" rerouteNo="0" devices="tripinfo_0DEtoLU.1" vType="passenger3" speedFactor="1.09" vaporized=""/>
    <tripinfo id="0LUtoDE.0" depart="45.00" departLane="-30706#0_0" departPos="5.10" departSpeed="13.89" departDelay="0.00" arrival="382.00" arrivalLane="-30668#16_1" arrivalPos="272.49" arrivalSpeed="34.72" duration="337.00" routeLength="10511.80" waitSteps="0" timeLoss="12.50" rerouteNo="0" devices="tripinfo_0LUtoDE.0" vType="passenger1" speedFactor="0.99" vaporized=""/>
    <tripinfo id="0BEtoFR.1" depart="145.00" departLane="-30668#0_0" departPos="4.60" departSpeed="13.89" departDelay="0.00" arrival="407.00" arrivalLane="-31366#3_1" arrivalPos="20.69" arrivalSpeed="39.23" duration="262.00" routeLength="9435.52" waitSteps="0" timeLoss="11.10" rerouteNo="0" devices="tripinfo_0BEtoFR.1" vType="passenger2a" speedFactor="1.11" vaporized=""/>
    <tripinfo id="0BEtoFR.0" depart="96.00" departLane="-30668#0_0" departPos="7.10" departSpeed="13.89" departDelay="0.00" arrival="429.00" arrivalLane="-31366#3_1" arrivalPos="20.69" arrivalSpeed="29.21" duration="333.00" routeLength="9433.02" waitSteps="0" timeLoss="9.53" rerouteNo="0" devices="tripinfo_0BEtoFR.0" vType="passenger5" speedFactor="1.12" vaporized=""/>
    <tripinfo id="0FRtoLU.2" depart="119.00" departLane="-32426#0_0" departPos="6.10" departSpeed="13.89" departDelay="0.00" arrival="430.00" arrivalLane="-32400#5_0" arrivalPos="257.03" arrivalSpeed="29.51" duration="311.00" routeLength="6506.94" waitSteps="0" timeLoss="16.84" rerouteNo="0" devices="tripinfo_0FRtoLU.2" vType="passenger3" speedFactor="0.82" vaporized=""/>
    <tripinfo id="0FRtoLU.3" depart="129.00" departLane="-32426#0_0" departPos="5.10" departSpeed="13.89" departDelay="0.00" arrival="431.00" arrivalLane="-32400#5_0" arrivalPos="257.03" arrivalSpeed="31.23" duration="302.00" routeLength="6507.94" waitSteps="0" timeLoss="88.13" rerouteNo="0" devices="tripinfo_0FRtoLU.3" vType="passenger1" speedFactor="1.12" vaporized=""/>
    <tripinfo id="randUni10908:1" depart="127.00" departLane="-31302_0" departPos="7.96" departSpeed="0.00" departDelay="0.00" arrival="435.00" arrivalLane="--32160#3_0" arrivalPos="32.02" arrivalSpeed="0.15" duration="308.00" routeLength="3117.39" waitSteps="73" timeLoss="120.87" rerouteNo="0" devices="tripinfo_randUni10908:1" vType="passenger2b" speedFactor="1.21" vaporized=""/>
    <tripinfo id="0FRtoLU.4" depart="192.00" departLane="-32426#0_0" departPos="4.60" departSpeed="13.89" departDelay="0.00" arrival="437.00" arrivalLane="-32400#5_0" arrivalPos="257.03" arrivalSpeed="37.23" duration="245.00" routeLength="6508.44" waitSteps="0" timeLoss="14.88" rerouteNo="0" devices="tripinfo_0FRtoLU.4" vType="passenger2a" speedFactor="1.05" vaporized=""/>
    <tripinfo id="randUni8397:1" depart="348.00" departLane="--30528#29_0" departPos="20.50" departSpeed="0.00" departDelay="0.00" arrival="440.00" arrivalLane="--30778#0_0" arrivalPos="58.33" arrivalSpeed="0.47" duration="92.00" routeLength="958.77" waitSteps="0" timeLoss="21.49" rerouteNo="0" devices="tripinfo_randUni8397:1" vType="passenger1" speedFactor="0.98" vaporized=""/>
    <tripinfo id="0FRtoBE.0" depart="96.00" departLane="-32426#0_0" departPos="4.60" departSpeed="13.89" departDelay="0.00" arrival="446.00" arrivalLane="-31622#16_1" arrivalPos="305.81" arrivalSpeed="31.43" duration="350.00" routeLength="9592.32" waitSteps="0" timeLoss="15.43" rerouteNo="0" devices="tripinfo_0FRtoBE.0" vType="passenger2b" speedFactor="0.90" vaporized=""/>
    <tripinfo id="0LUtoBE.0" depart="12.00" departLane="-30706#0_0" departPos="4.60" departSpeed="13.89" departDelay="0.00" arrival="458.00" arrivalLane="-31622#16_1" arrivalPos="305.81" arrivalSpeed="31.15" duration="446.00" routeLength="11318.23" waitSteps="0" timeLoss="18.67" rerouteNo="0" devices="tripinfo_0LUtoBE.0" vType="passenger2a" speedFactor="0.87" vaporized=""/>
    <tripinfo id="0FRtoBE.1" depart="190.00" departLane="-32426#0_0" departPos="4.60" departSpeed="13.89" departDelay="0.00" arrival="467.00" arrivalLane="-31622#16_2" arrivalPos="305.81" arrivalSpeed="40.98" duration="277.00" routeLength="9592.32" waitSteps="0" timeLoss="17.67" rerouteNo="0" devices="tripinfo_0FRtoBE.1" vType="passenger2b" speedFactor="1.16" vaporized=""/>
    <tripinfo id="randUni19500:1" depart="198.00" departLane="-31230#5_0" departPos="33.25" departSpeed="0.00" departDelay="0.00" arrival="475.00" arrivalLane="--30968#1_0" arrivalPos="50.70" arrivalSpeed="2.34" duration="277.00" routeLength="2465.72" waitSteps="66" timeLoss="104.30" rerouteNo="0" devices="tripinfo_randUni19500:1" vType="passenger2b" speedFactor="1.03" vaporized=""/>
    <tripinfo id="0LUtoDE.1" depart="122.00" departLane="-30706#0_0" departPos="4.60" departSpeed="13.89" departDelay="0.00" arrival="476.00" arrivalLane="-30668#16_1" arrivalPos="272.49" arrivalSpeed="33.07" duration="354.00" routeLength="10512.30" waitSteps="0" timeLoss="13.11" rerouteNo="0" devices="tripinfo_0LUtoDE.1" vType="passenger2b" speedFactor="0.94" vaporized=""/>
    <tripinfo id="randUni18368:1" depart="0.00" departLane="-31606#0_0" departPos="177.47" departSpeed="0.00" departDelay="0.00" arrival="480.00" arrivalLane="-30496#4_1" arrivalPos="97.49" arrivalSpeed="0.20" duration="480.00" routeLength="3307.82" waitSteps="186" timeLoss="245.95" rerouteNo="0" devices="tripinfo_randUni18368:1" vType="passenger2a" speedFactor="0.97" vaporized=""/>
    <tripinfo id="0FRtoLU.5" depart="243.00" departLane="-32426#0_0" departPos="5.10" departSpeed="13.89" departDelay="0.00" arrival="484.00" arrivalLane="-32400#5_0" arrivalPos="257.03" arrivalSpeed="40.23" duration="241.00" routeLength="6507.94" waitSteps="0" timeLoss="28.33" rerouteNo="0" devices="tripinfo_0FRtoLU.5" vType="passenger1" speedFactor="1.13" vaporized=""/>
    <tripinfo id="0DEtoFR.0" depart="0.00" departLane="-31622#0_0" departPos="5.10" departSpeed="13.89" departDelay="0.00" arrival="486.00" arrivalLane="-31366#3_1" arrivalPos="20.69" arrivalSpeed="35.34" duration="486.00" routeLength="15900.65" waitSteps="0" timeLoss="15.21" rerouteNo="0" devices="tripinfo_0DEtoFR.0" vType="passenger1" speedFactor="0.99" vaporized=""/>
    <tripinfo id="0BEtoFR.2" depart="215.00" departLane="-30668#0_0" departPos="4.60" departSpeed="13.89" departDelay="0.00" arrival="499.00" arrivalLane="-31366#3_1" arrivalPos="20.69" arrivalSpeed="35.79" duration="284.00" routeLength="9435.52" waitSteps="0" timeLoss="11.47" rerouteNo="0" devices="tripinfo_0BEtoFR.2" vType="passenger2b" speedFactor="1.02" vaporized=""/>
    <tripinfo id="0BEtoFR.3" depart="239.00" departLane="-30668#0_0" departPos="4.60" departSpeed="13.89" departDelay="0.00" arrival="506.00" arrivalLane="-31366#3_1" arrivalPos="20.69" arrivalSpeed="38.00" duration="267.00" routeLength="9435.52" waitSteps="0" timeLoss="11.43" rerouteNo="0" devices="tripinfo_0BEtoFR.3" vType="passenger2a" speedFactor="1.09" vaporized=""/>
    <tripinfo id="randUni20481:1" depart="13.00" departLane="--32468#2_0" departPos="31.81" departSpeed="0.00" departDelay="0.00" arrival="511.00" arrivalLane="-30528#52_1" arrivalPos="0.13" arrivalSpeed="0.88" duration="498.00" routeLength="5779.93" waitSteps="80" timeLoss="127.93" rerouteNo="0" devices="tripinfo_randUni20481:1" vType="passenger1" speedFactor="1.10" vaporized=""/>
    <tripinfo id="0FRtoLU.6" depart="272.00" departLane="-32426#0_0" departPos="4.60" departSpeed="13.89" departDelay="0.00" arrival="512.00" arrivalLane="-32400#5_0" arrivalPos="257.03" arrivalSpeed="38.50" duration="240.00" routeLength="6508.44" waitSteps="0" timeLoss="14.17" rerouteNo="0" devices="tripinfo_0FRtoLU.6" vType="passenger2b" speedFactor="1.07" vaporized=""/>
    <tripinfo id="0LUtoDE.2" depart="205.00" departLane="-30706#0_0" departPos="4.60" departSpeed="13.89" departDelay="0.00" arrival="521.00" arrivalLane="-30668#16_1" arrivalPos="272.49" arrivalSpeed="37.58" duration="316.00" routeLength="10512.30" waitSteps="0" timeLoss="12.79" rerouteNo="0" devices="tripinfo_0LUtoDE.2" vType="passenger2b" speedFactor="1.06" vaporized=""/>
    <tripinfo id="0LUtoBE.1" depart="133.00" departLane="-30706#0_0" departPos="5.10" departSpeed="13.89" departDelay="0.00" arrival="545.00" arrivalLane="-31622#16_1" arrivalPos="305.81" arrivalSpeed="33.38" duration="412.00" routeLength="11317.73" waitSteps="0" timeLoss="18.41" rerouteNo="0" devices="tripinfo_0LUtoBE.1" vType="passenger1" speedFactor="0.94" vaporized=""/>
    <tripinfo id="0DEtoFR.1" depart="8.00" departLane="-31622#0_0" departPos="4.60" departSpeed="13.89" departDelay="0.00" arrival="551.00" arrivalLane="-31366#3_1" arrivalPos="20.69" arrivalSpeed="31.26" duration="543.00" routeLength="15901.15" waitSteps="0" timeLoss="17.71" rerouteNo="0" devices="tripinfo_0DEtoFR.1" vType="passenger2b" speedFactor="0.89" vaporized=""/>
    <tripinfo id="0DEtoFR.2" depart="14.00" departLane="-31622#0_0" departPos="5.10" departSpeed="13.89" departDelay="0.00" arrival="555.00" arrivalLane="-31366#3_1" arrivalPos="20.69" arrivalSpeed="31.61" duration="541.00" routeLength="15900.65" waitSteps="0" timeLoss="16.91" rerouteNo="0" devices="tripinfo_0DEtoFR.2" vType="passenger1" speedFactor="0.89" vaporized=""/>
    <tripinfo id="0LUtoFR.1" depart="238.00" departLane="-30706#0_0" departPos="4.60" departSpeed="13.89" departDelay="0.00" arrival="557.00" arrivalLane="-31366#3_1" arrivalPos="20.69" arrivalSpeed="37.32" duration="319.00" routeLength="8111.50" waitSteps="0" timeLoss="37.62" rerouteNo="0" devices="tripinfo_0LUtoFR.1" vType="passenger2a" speedFactor="1.10" vaporized=""/>
    <tripinfo id="0BEtoFR.4" depart="302.00" departLane="-30668#0_0" departPos="5.10" departSpeed="13.89" departDelay="0.00" arrival="562.00" arrivalLane="-31366#3_1" arrivalPos="20.69" arrivalSpeed="39.54" duration="260.00" routeLength="9435.02" waitSteps="0" timeLoss="11.87" rerouteNo="0" devices="tripinfo_0BEtoFR.4" vType="passenger1" speedFactor="1.13" vaporized=""/>
    <tripinfo id="0LUtoFR.0" depart="235.00" departLane="-30706#0_0" departPos="5.10" departSpeed="13.89" departDelay="0.00" arrival="569.00" arrivalLane="-31366#3_1" arrivalPos="20.69" arrivalSpeed="34.45" duration="334.00" routeLength="8111.00" waitSteps="0" timeLoss="19.84" rerouteNo="0" devices="tripinfo_0LUtoFR.0" vType="passenger1" speedFactor="0.99" vaporized=""/>
    <tripinfo id="0FRtoBE.2" depart="267.00" departLane="-32426#0_0" departPos="5.10" departSpeed="13.89" departDelay="0.00" arrival="571.00" arrivalLane="-31622#16_1" arrivalPos="305.81" arrivalSpeed="37.26" duration="304.00" routeLength="9591.82" waitSteps="0" timeLoss="15.71" rerouteNo="0" devices="tripinfo_0FRtoBE.2" vType="passenger1" speedFactor="1.04" vaporized=""/>
    <tripinfo id="0DEtoLU.2" depart="160.00" departLane="-31622#0_0" departPos="5.10" departSpeed="13.89" departDelay="0.00" arrival="587.00" arrivalLane="-32400#5_1" arrivalPos="257.03" arrivalSpeed="29.72" duration="427.00" routeLength="11353.72" waitSteps="0" timeLoss="14.93" rerouteNo="0" devices="tripinfo_0DEtoLU.2" vType="passenger1" speedFactor="0.86" vaporized=""/>
    <tripinfo id="0DEtoFR.4" depart="154.00" departLane="-31622#0_0" departPos="4.60" departSpeed="13.89" departDelay="0.00" arrival="595.00" arrivalLane="-31366#3_1" arrivalPos="20.69" arrivalSpeed="38.95" duration="441.00" routeLength="15901.15" waitSteps="0" timeLoss="14.74" rerouteNo="0" devices="tripinfo_0DEtoFR.4" vType="passenger2a" speedFactor="1.10" vaporized=""/>
    <tripinfo id="randUni5174:1" depart="289.00" departLane="--32388_0" departPos="7.68" departSpeed="0.00" departDelay="0.00" arrival="600.00" arrivalLane="-30398#8_0" arrivalPos="7.66" arrivalSpeed="0.52" duration="311.00" routeLength="2388.16" waitSteps="112" timeLoss="161.35" rerouteNo="0" devices="tripinfo_randUni5174:1" vType="passenger2a" speedFactor="1.09" vaporized=""/>
    <tripinfo id="0LUtoFR.2" depart="289.00" departLane="-30706#0_0" departPos="4.60" departSpeed="13.89" departDelay="0.00" arrival="602.00" arrivalLane="-31366#3_1" arrivalPos="20.69" arrivalSpeed="37.02" duration="313.00" routeLength="8111.50" waitSteps="0" timeLoss="21.74" rerouteNo="0" devices="tripinfo_0LUtoFR.2" vType="passenger2a" speedFactor="1.06" vaporized=""/>
    <tripinfo id="randUni2416:1" depart="301.00" departLane="--32280#0_0" departPos="151.57" departSpeed="0.00" departDelay="0.00" arrival="606.00" arrivalLane="-31904#2_0" arrivalPos="28.27" arrivalSpeed="1.03" duration="305.00" routeLength="1914.20" waitSteps="101" timeLoss="137.95" rerouteNo="0" devices="tripinfo_randUni2416:1" vType="passenger5" speedFactor="0.82" vaporized=""/>
    <tripinfo id="0BEtoLU.1" depart="248.00" departLane="-30668#0_0" departPos="5.10" departSpeed="13.89" departDelay="0.00" arrival="610.00" arrivalLane="-32400#5_0" arrivalPos="257.03" arrivalSpeed="35.75" duration="362.00" routeLength="10745.68" waitSteps="0" timeLoss="22.02" rerouteNo="0" devices="tripinfo_0BEtoLU.1" vType="passenger1" speedFactor="1.01" vaporized=""/>
    <tripinfo id="0LUtoFR.3" depart="315.00" departLane="-30706#0_0" departPos="5.10" departSpeed="13.89" departDelay="0.00" arrival="614.00" arrivalLane="-31366#3_1" arrivalPos="20.69" arrivalSpeed="39.69" duration="299.00" routeLength="8111.00" waitSteps="0" timeLoss="20.07" rerouteNo="0" devices="tripinfo_0LUtoFR.3" vType="passenger1" speedFactor="1.11" vaporized=""/>
    <tripinfo id="0DEtoLU.3" depart="265.00" departLane="-31622#0_0" departPos="5.10" departSpeed="13.89" departDelay="0.00" arrival="616.00" arrivalLane="-32400#5_1" arrivalPos="257.03" arrivalSpeed="36.70" duration="351.00" routeLength="11353.72" waitSteps="0" timeLoss="13.21" rerouteNo="0" devices="tripinfo_0DEtoLU.3" vType="passenger1" speedFactor="1.04" vaporized=""/>
    <tripinfo id="0BEtoLU.0" depart="237.00" departLane="-30668#0_0" departPos="5.10" departSpeed="13.89" departDelay="0.00" arrival="622.00" arrivalLane="-32400#5_0" arrivalPos="257.03" arrivalSpeed="32.75" duration="385.00" routeLength="10745.68" waitSteps="0" timeLoss="15.96" rerouteNo="0" devices="tripinfo_0BEtoLU.0" vType="passenger1" speedFactor="0.93" vaporized=""/>
    <tripinfo id="0LUtoDE.4" depart="324.00" departLane="-30706#0_0" departPos="5.10" departSpeed="13.89" departDelay="0.00" arrival="626.00" arrivalLane="-30668#16_1" arrivalPos="272.49" arrivalSpeed="38.98" duration="302.00" routeLength="10511.80" waitSteps="0" timeLoss="12.62" rerouteNo="0" devices="tripinfo_0LUtoDE.4" vType="passenger1" speedFactor="1.11" vaporized=""/>
    <tripinfo id="randUni9228:1" depart="392.00" departLane="-31648#0_0" departPos="4.11" departSpeed="0.00" departDelay="0.00" arrival="634.00" arrivalLane="-30608#9_1" arrivalPos="71.86" arrivalSpeed="0.09" duration="242.00" routeLength="1693.42" waitSteps="70" timeLoss="97.07" rerouteNo="0" devices="tripinfo_randUni9228:1" vType="passenger1" speedFactor="0.85" vaporized=""/>
    <tripinfo id="0BEtoLU.2" depart="292.00" departLane="-30668#0_0" departPos="6.10" departSpeed="13.89" departDelay="0.00" arrival="636.00" arrivalLane="-32400#5_0" arrivalPos="257.03" arrivalSpeed="37.10" duration="344.00" routeLength="10744.68" waitSteps="0" timeLoss="13.13" rerouteNo="0" devices="tripinfo_0BEtoLU.2" vType="passenger3" speedFactor="1.03" vaporized=""/>
    <tripinfo id="0FRtoLU.7" depart="379.00" departLane="-32426#0_0" departPos="7.10" departSpeed="13.89" departDelay="0.00" arrival="639.00" arrivalLane="-32400#5_0" arrivalPos="257.03" arrivalSpeed="29.95" duration="260.00" routeLength="6505.94" waitSteps="0" timeLoss="10.36" rerouteNo="0" devices="tripinfo_0FRtoLU.7" vType="passenger5" speedFactor="1.12" vaporized=""/>
    <tripinfo id="0LUtoDE.3" depart="303.00" departLane="-30706#0_0" departPos="4.60" departSpeed="13.89" departDelay="0.00" arrival="640.00" arrivalLane="-30668#16_1" arrivalPos="272.49" arrivalSpeed="34.81" duration="337.00" routeLength="10512.30" waitSteps="0" timeLoss="12.50" rerouteNo="0" devices="tripinfo_0LUtoDE.3" vType="passenger2b" speedFactor="0.99" vaporized=""/>
    <tripinfo id="0FRtoBE.3" depart="344.00" departLane="-32426#0_0" departPos="4.60" departSpeed="13.89" departDelay="0.00" arrival="652.00" arrivalLane="-31622#16_1" arrivalPos="305.81" arrivalSpeed="36.90" duration="308.00" routeLength="9592.32" waitSteps="0" timeLoss="16.55" rerouteNo="0" devices="tripinfo_0FRtoBE.3" vType="passenger2a" speedFactor="1.03" vaporized=""/>
    <tripinfo id="0FRtoBE.4" depart="359.00" departLane="-32426#0_0" departPos="5.10" departSpeed="13.89" departDelay="0.00" arrival="657.00" arrivalLane="-31622#16_1" arrivalPos="305.81" arrivalSpeed="37.67" duration="298.00" routeLength="9591.82" waitSteps="0" timeLoss="16.93" rerouteNo="0" devices="tripinfo_0FRtoBE.4" vType="passenger1" speedFactor="1.06" vaporized=""/>
    <tripinfo id="0DEtoFR.3" depart="98.00" departLane="-31622#0_0" departPos="5.10" departSpeed="13.89" departDelay="0.00" arrival="668.00" arrivalLane="-31366#3_1" arrivalPos="20.69" arrivalSpeed="29.45" duration="570.00" routeLength="15900.65" waitSteps="0" timeLoss="17.69" rerouteNo="0" devices="tripinfo_0DEtoFR.3" vType="passenger1" speedFactor="0.85" vaporized=""/>
    <tripinfo id="0DEtoLU.4" depart="340.00" departLane="-31622#0_0" departPos="6.10" departSpeed="13.89" departDelay="0.00" arrival="670.00" arrivalLane="-32400#5_1" arrivalPos="257.03" arrivalSpeed="39.85" duration="330.00" routeLength="11352.72" waitSteps="0" timeLoss="12.37" rerouteNo="0" devices="tripinfo_0DEtoLU.4" vType="passenger3" speedFactor="1.11" vaporized=""/>
    <tripinfo id="0DEtoBE.1" depart="180.00" departLane="-31622#0_0" departPos="5.10" departSpeed="13.89" departDelay="0.00" arrival="674.00" arrivalLane="-31622#16_1" arrivalPos="305.81" arrivalSpeed="38.92" duration="494.00" routeLength="19107.38" waitSteps="0" timeLoss="16.90" rerouteNo="0" devices="tripinfo_0DEtoBE.1" vType="passenger1" speedFactor="1.11" vaporized=""/>
    <tripinfo id="0FRtoLU.8" depart="405.00" departLane="-32426#0_0" departPos="5.60" departSpeed="13.89" departDelay="0.00" arrival="686.00" arrivalLane="-32400#5_0" arrivalPos="257.03" arrivalSpeed="29.80" duration="281.00" routeLength="6507.44" waitSteps="0" timeLoss="12.45" rerouteNo="0" devices="tripinfo_0FRtoLU.8" vType="passenger4" speedFactor="0.96" vaporized=""/>
    <tripinfo id="randUni1024:1" depart="139.00" departLane="-32924#6_0" departPos="151.04" departSpeed="0.00" departDelay="0.00" arrival="688.00" arrivalLane="-32392#1_0" arrivalPos="75.78" arrivalSpeed="0.18" duration="549.00" routeLength="3713.17" waitSteps="242" timeLoss="296.17" rerouteNo="0" devices="tripinfo_randUni1024:1" vType="passenger2b" speedFactor="1.06" vaporized=""/>
    <tripinfo id="0FRtoDE.0" depart="252.00" departLane="-32426#0_0" departPos="5.10" departSpeed="13.89" departDelay="0.00" arrival="691.00" arrivalLane="-30668#16_2" arrivalPos="272.49" arrivalSpeed="35.87" duration="439.00" routeLength="14874.80" waitSteps="0" timeLoss="20.09" rerouteNo="0" devices="tripinfo_0FRtoDE.0" vType="passenger1" speedFactor="1.02" vaporized=""/>
    <tripinfo id="randUni5299:1" depart="37.00" departLane="--32326#1_0" departPos="63.10" departSpeed="0.00" departDelay="0.00" arrival="694.00" arrivalLane="-32902#1_0" arrivalPos="44.79" arrivalSpeed="2.80" duration="657.00" routeLength="5998.88" waitSteps="135" timeLoss="223.58" rerouteNo="0" devices="tripinfo_randUni5299:1" vType="passenger1" speedFactor="0.98" vaporized=""/>
    <tripinfo id="randUni7357:1" depart="102.00" departLane="-30988#3_0" departPos="72.41" departSpeed="0.00" departDelay="0.00" arrival="696.00" arrivalLane="-32190_0" arrivalPos="435.83" arrivalSpeed="0.07" duration="594.00" routeLength="6198.57" waitSteps="126" timeLoss="182.13" rerouteNo="0" devices="tripinfo_randUni7357:1" vType="passenger1" speedFactor="1.06" vaporized=""/>
    <tripinfo id="0LUtoFR.4" depart="372.00" departLane="-30706#0_0" departPos="7.10" departSpeed="13.89" departDelay="0.00" arrival="703.00" arrivalLane="-31366#3_1" arrivalPos="20.69" arrivalSpeed="29.10" duration="331.00" routeLength="8109.00" waitSteps="0" timeLoss="16.48" rerouteNo="0" devices="tripinfo_0LUtoFR.4" vType="passenger5" speedFactor="1.12" vaporized=""/>
    <tripinfo id="0BEtoDE.0" depart="140.00" departLane="-30668#0_0" departPos="4.60" departSpeed="13.89" departDelay="0.00" arrival="703.00" arrivalLane="-30668#16_1" arrivalPos="272.49" arrivalSpeed="33.79" duration="563.00" routeLength="19113.04" waitSteps="0" timeLoss="14.31" rerouteNo="0" devices="tripinfo_0BEtoDE.0" vType="passenger2b" speedFactor="0.97" vaporized=""/>
    <tripinfo id="randUni18438:1" depart="110.00" departLane="-31146#0_0" departPos="86.18" departSpeed="0.00" departDelay="0.00" arrival="704.00" arrivalLane="-31892#0_0" arrivalPos="22.26" arrivalSpeed="0.09" duration="594.00" routeLength="6464.29" waitSteps="123" timeLoss="191.28" rerouteNo="0" devices="tripinfo_randUni18438:1" vType="passenger1" speedFactor="1.06" vaporized=""/>
    <tripinfo id="CNA____NBNA_1" depart="2.00" departLane="-32924#0_0" departPos="0.00" departSpeed="0.00" departDelay="0.00" arrival="713.00" arrivalLane="--32278#1_0" arrivalPos="139.07" arrivalSpeed="13.34" duration="711.00" routeLength="5703.17" waitSteps="104" timeLoss="177.47" rerouteNo="0" devices="tripinfo_CNA____NBNA_1" vType="bus" speedFactor="0.99" vaporized=""/>
    <tripinfo id="randUni4182:1" depart="244.00" departLane="--32220#1_0" departPos="0.69" departSpeed="0.00" departDelay="0.00" arrival="713.00" arrivalLane="--30740#2_0" arrivalPos="63.22" arrivalSpeed="0.63" duration="469.00" routeLength="12747.62" waitSteps="0" timeLoss="41.30" rerouteNo="0" devices="tripinfo_randUni4182:1" vType="passenger1" speedFactor="1.13" vaporized=""/>
    <tripinfo id="0DEtoFR.5" depart="204.00" departLane="-31622#0_0" departPos="5.10" departSpeed="13.89" departDelay="0.00" arrival="719.00" arrivalLane="-31366#3_1" arrivalPos="20.69" arrivalSpeed="33.95" duration="515.00" routeLength="15900.65" waitSteps="0" timeLoss="16.85" rerouteNo="0" devices="tripinfo_0DEtoFR.5" vType="passenger1" speedFactor="0.94" vaporized=""/>
    <tripinfo id="0BEtoLU.3" depart="376.00" departLane="-30668#0_0" departPos="4.60" departSpeed="13.89" departDelay="0.00" arrival="728.00" arrivalLane="-32400#5_0" arrivalPos="257.03" arrivalSpeed="35.48" duration="352.00" routeLength="10746.18" waitSteps="0" timeLoss="14.70" rerouteNo="0" devices="tripinfo_0BEtoLU.3" vType="passenger2a" speedFactor="1.02" vaporized=""/>
    <tripinfo id="randUni13094:1" depart="207.00" departLane="-31466#0_0" departPos="82.79" departSpeed="0.00" departDelay="0.00" arrival="730.00" arrivalLane="-31262#0_0" arrivalPos="2.56" arrivalSpeed="0.22" duration="523.00" routeLength="10977.13" waitSteps="0" timeLoss="50.24" rerouteNo="0" devices="tripinfo_randUni13094:1" vType="passenger1" speedFactor="1.02" vaporized=""/>
    <tripinfo id="0DEtoFR.6" depart="224.00" departLane="-31622#0_0" departPos="5.10" departSpeed="13.89" departDelay="0.00" arrival="736.00" arrivalLane="-31366#3_1" arrivalPos="20.69" arrivalSpeed="33.20" duration="512.00" routeLength="15900.65" waitSteps="0" timeLoss="15.85" rerouteNo="0" devices="tripinfo_0DEtoFR.6" vType="passenger1" speedFactor="0.95" vaporized=""/>
    <tripinfo id="0DEtoLU.5" depart="388.00" departLane="-31622#0_0" departPos="4.60" departSpeed="13.89" departDelay="0.00" arrival="742.00" arrivalLane="-32400#5_1" arrivalPos="257.03" arrivalSpeed="37.14" duration="354.00" routeLength="11354.22" waitSteps="0" timeLoss="13.70" rerouteNo="0" devices="tripinfo_0DEtoLU.5" vType="passenger2a" speedFactor="1.04" vaporized=""/>
    <tripinfo id="0DEtoBE.2" depart="183.00" departLane="-31622#0_0" departPos="4.60" departSpeed="13.89" departDelay="0.00" arrival="752.00" arrivalLane="-31622#16_2" arrivalPos="305.81" arrivalSpeed="33.68" duration="569.00" routeLength="19107.88" waitSteps="0" timeLoss="14.44" rerouteNo="0" devices="tripinfo_0DEtoBE.2" vType="passenger2a" speedFactor="0.95" vaporized=""/>
    <tripinfo id="CNA____NBNA_0" depart="2.00" departLane="-32278#1_0" departPos="0.00" departSpeed="0.00" departDelay="0.00" arrival="754.00" arrivalLane="--32924#0_0" arrivalPos="360.91" arrivalSpeed="12.96" duration="752.00" routeLength="5706.89" waitSteps="116" timeLoss="199.40" rerouteNo="0" devices="tripinfo_CNA____NBNA_0" vType="bus" speedFactor="0.95" vaporized=""/>